# vtk DataFile Version 3.0
vtk output
ASCII
DATASET POLYDATA
POINTS 34 float
0.5 0.2 0.3 0.5 0.2 -0.2 0.5 0.00865828 -0.16194 
0.85 0.2 -0.2 0.85 0.00865828 -0.16194 0.85 0.2 0.3 
0.5 -0.153553 -0.0535534 0.85 -0.153553 -0.0535534 0.5 -0.26194 0.108658 
0.85 -0.26194 0.108658 0.5 -0.3 0.3 0.85 -0.3 0.3 
0.5 -0.26194 0.491342 0.85 -0.26194 0.491342 0.5 -0.153553 0.653553 
0.85 -0.153553 0.653553 0.5 0.00865828 0.76194 0.85 0.00865828 0.76194 
0.5 0.2 0.8 0.85 0.2 0.8 0.5 0.391342 0.76194 
0.85 0.391342 0.76194 0.5 0.553553 0.653553 0.85 0.553553 0.653553 
0.5 0.66194 0.491342 0.85 0.66194 0.491342 0.5 0.7 0.3 
0.85 0.7 0.3 0.5 0.66194 0.108658 0.85 0.66194 0.108658 
0.5 0.553553 -0.0535534 0.85 0.553553 -0.0535534 0.5 0.391342 -0.16194 
0.85 0.391342 -0.16194 
POLYGONS 48 208
3 0 1 2 
4 2 1 3 4 
3 5 4 3 
3 0 2 6 
4 6 2 4 7 
3 5 7 4 
3 0 6 8 
4 8 6 7 9 
3 5 9 7 
3 0 8 10 
4 10 8 9 11 
3 5 11 9 
3 0 10 12 
4 12 10 11 13 
3 5 13 11 
3 0 12 14 
4 14 12 13 15 
3 5 15 13 
3 0 14 16 
4 16 14 15 17 
3 5 17 15 
3 0 16 18 
4 18 16 17 19 
3 5 19 17 
3 0 18 20 
4 20 18 19 21 
3 5 21 19 
3 0 20 22 
4 22 20 21 23 
3 5 23 21 
3 0 22 24 
4 24 22 23 25 
3 5 25 23 
3 0 24 26 
4 26 24 25 27 
3 5 27 25 
3 0 26 28 
4 28 26 27 29 
3 5 29 27 
3 0 28 30 
4 30 28 29 31 
3 5 31 29 
3 0 30 32 
4 32 30 31 33 
3 5 33 31 
3 0 32 1 
4 1 32 33 3 
3 5 3 33 

POINT_DATA 34
SCALARS my_field double 4
LOOKUP_TABLE default
1.05701 1.18812 1.13111 0.942987 1.05701 1.18812 1.13111 0.942987 1.0608 
1.20061 1.13981 0.939203 1.09395 1.30998 1.21604 0.906055 1.18489 1.61006 
1.42517 0.815113 1.09395 1.30998 1.21604 0.906055 1.06499 1.21446 1.14946 
0.935006 1.13313 1.43929 1.30616 0.866866 1.04591 1.15148 1.10557 0.954093 
1.04739 1.15636 1.10897 0.952613 1.03924 1.12948 1.09024 0.960759 1.02219 
1.07323 1.05104 0.977807 1.04591 1.15148 1.10557 0.954093 1.04739 1.15636 
1.10897 0.952613 1.06499 1.21446 1.14946 0.935006 1.13313 1.43929 1.30616 
0.866866 1.0608 1.20061 1.13981 0.939203 1.18489 1.61006 1.42517 0.815113 
1.05701 1.18812 1.13111 0.942987 1.09395 1.30998 1.21604 0.906055 1.02435 
1.08035 1.056 0.97565 0.971174 0.904884 0.93371 1.02883 1.00229 1.00754 
1.00526 0.997713 0.905925 0.689586 0.783662 1.09408 0.990362 0.968198 0.977836 
1.00964 0.875133 0.587984 0.712852 1.12487 0.986631 0.955889 0.969257 1.01337 
0.866135 0.558294 0.69216 1.13387 0.990362 0.968198 0.977836 1.00964 0.875133 
0.587984 0.712852 1.12487 1.00229 1.00754 1.00526 0.997713 0.905925 0.689586 
0.783662 1.09408 1.02435 1.08035 1.056 0.97565 0.971174 0.904884 0.93371 
1.02883 
