# vtk DataFile Version 3.0
vtk output
ASCII
DATASET POLYDATA
POINTS 1455 float
-0.06 -0.0362132 0.015 -0.06 -0.247016 0.015 -0.06 -0.23097 0.0956709 
-0.06 -0.015 0.015 -0.06 -0.176777 0.176777 -0.06 -0.015 0.0362132 
-0.06 -0.0956709 0.23097 -0.06 -0.015 0.247016 -0.06 0.015 0.0362132 
-0.06 0.015 0.247016 -0.06 0.0956709 0.23097 -0.06 0.015 0.015 
-0.06 0.176777 0.176777 -0.06 0.0362132 0.015 -0.06 0.23097 0.0956709 
-0.06 0.247016 0.015 -0.06 0 0.15 -0.06 -0.015 0.15 
-0.06 0 0.25 -0.06 0.015 0.15 -0.06 -0.015 -0.0362132 
-0.06 -0.015 -0.247016 -0.06 -0.0956709 -0.23097 -0.06 -0.015 -0.015 
-0.06 -0.176777 -0.176777 -0.06 -0.0362132 -0.015 -0.06 -0.23097 -0.0956709 
-0.06 -0.247016 -0.015 -0.06 0.0362132 -0.015 -0.06 0.247016 -0.015 
-0.06 0.23097 -0.0956709 -0.06 0.015 -0.015 -0.06 0.176777 -0.176777 
-0.06 0.015 -0.0362132 -0.06 0.0956709 -0.23097 -0.06 0.015 -0.247016 
-0.06 -0.015 -0.15 -0.06 0 -0.15 -0.06 0 -0.25 
-0.06 0.015 -0.15 -0.06 -0.15 0 -0.06 -0.15 -0.015 
-0.06 -0.25 0 -0.06 -0.15 0.015 -0.06 0.15 0 
-0.06 0.15 0.015 -0.06 0.25 0 -0.06 0.15 -0.015 
-0.03 -0.015 -0.015 -0.03 -0.15 -0.015 -0.03 -0.15 0.015 
-0.03 -0.015 0.015 -0.03 -0.015 -0.0985226 -0.03 -0.015 0.15 
-0.03 0.015 0.15 -0.03 0.015 -0.101477 -0.03 0.015 -0.15 
-0.03 -0.015 -0.15 -0.03 0.15 0.015 -0.03 0.15 -0.015 
-0.03 0.015 -0.015 -0.03 0.015 0.015 -0.03 -0.015 -0.193445 
-0.03 -0.07517 -0.181476 -0.03 0 -0.196429 -0.06 -0.015 -0.0985226 
-0.06 0.015 -0.101477 -0.03 -0.015 0.193445 -0.03 0 0.196429 
-0.03 0.015 0.193445 -0.03 0.015 -0.193445 -0.03 0.154704 -0.115237 
-0.03 0.138896 -0.138896 -0.06 0.213994 -0.121077 -0.03 0.181476 -0.07517 
-0.03 0.07517 -0.181476 -0.03 0.07517 0.181476 -0.03 0.138896 0.138896 
-0.03 0.181476 0.07517 -0.03 0.193445 0.015 -0.03 0.196429 0 
-0.03 0.193445 -0.015 -0.03 -0.138896 -0.138896 -0.03 -0.176501 -0.0826162 
-0.0382239 -0.195044 -0.0807898 -0.03 -0.181476 -0.07517 -0.06 -0.234707 -0.0768834 
-0.03 -0.193445 -0.015 -0.03 -0.196429 0 -0.03 -0.193445 0.015 
-0.03 -0.181476 0.07517 -0.03 -0.138896 0.138896 -0.03 -0.07517 0.181476 
0.024 0 -0.1 1 0 -0.1 1 -0.019509 -0.0980785 
0.0229029 -0.019509 -0.0980785 0 0 -0.142857 0 -0.0546691 -0.131983 
0.0217619 -0.0397977 -0.0960803 0 -0.101015 -0.101015 0.0079048 -0.0910339 -0.0910339 
0 -0.108858 -0.0892785 -0.00784826 0.110925 -0.110925 0 0.0893624 -0.108801 
0 0.0546691 -0.131983 0.016808 0.0431831 -0.104253 0.024 -0.0382683 -0.092388 
1 0 0 1 -0.0382683 -0.092388 1 -0.055557 -0.083147 
1 -0.0707107 -0.0707107 1 -0.083147 -0.055557 1 -0.092388 -0.0382683 
1 -0.0980785 -0.019509 1 -0.1 0 1 -0.0980785 0.019509 
1 -0.092388 0.0382683 1 -0.083147 0.055557 1 -0.0707107 0.0707107 
1 -0.055557 0.083147 1 -0.0382683 0.092388 1 -0.019509 0.0980785 
1 0 0.1 1 0.019509 0.0980785 1 0.0382683 0.092388 
1 0.055557 0.083147 1 0.0707107 0.0707107 1 0.083147 0.055557 
1 0.092388 0.0382683 1 0.0980785 0.019509 1 0.1 0 
1 0.0980785 -0.019509 1 0.092388 -0.0382683 1 0.083147 -0.055557 
1 0.0707107 -0.0707107 1 0.055557 -0.083147 1 0.0382683 -0.092388 
1 0.019509 -0.0980785 0.0272492 -0.055557 -0.083147 0.0325255 -0.0707107 -0.0707107 
0.0396262 -0.083147 -0.055557 0.0482785 -0.092388 -0.0382683 0.0581499 -0.0980785 -0.019509 
0.0688609 -0.1 0 0.08 -0.0980785 0.019509 0.0911391 -0.092388 0.0382683 
0.10185 -0.083147 0.055557 0.111721 -0.0707107 0.0707107 0.120374 -0.055557 0.083147 
0.127475 -0.0382683 0.092388 0.132751 -0.019509 0.0980785 0.136 0 0.1 
0.137097 0.019509 0.0980785 0.136 0.0382683 0.092388 0.132751 0.055557 0.083147 
0.127475 0.0707107 0.0707107 0.120374 0.083147 0.055557 0.111721 0.092388 0.0382683 
0.10185 0.0980785 0.019509 0.0911391 0.1 0 0.08 0.0980785 -0.019509 
0.0688609 0.092388 -0.0382683 0.0581499 0.083147 -0.055557 0.0482785 0.0707107 -0.0707107 
0.0396262 0.055557 -0.083147 0.0325255 0.0382683 -0.092388 0.0272492 0.019509 -0.0980785 
0.016808 -0.0797919 -0.0797919 0.0217619 -0.0735366 -0.0735366 0.024 -0.0707107 -0.0707107 
0.0229029 -0.055557 -0.083147 0.0272492 -0.083147 -0.055557 0.0325255 -0.092388 -0.0382683 
0.0396262 -0.0980785 -0.019509 0.0482785 -0.1 0 0.0581499 -0.0980785 0.019509 
0.0688609 -0.092388 0.0382683 0.08 -0.083147 0.055557 0.0911391 -0.0707107 0.0707107 
0.10185 -0.055557 0.083147 0.111721 -0.0382683 0.092388 0.120374 -0.019509 0.0980785 
0.127475 0 0.1 0.132751 0.019509 0.0980785 0 -0.131983 -0.0546691 
0 -0.124197 -0.0663219 0.0079048 -0.118942 -0.0492672 0.016808 -0.104253 -0.0431831 
0.0217619 -0.0960803 -0.0397977 0.024 -0.092388 -0.0382683 0.0229029 -0.083147 -0.055557 
0.0272492 -0.0980785 -0.019509 0.0325255 -0.1 0 0.0396262 -0.0980785 0.019509 
0.0482785 -0.092388 0.0382683 0.0581499 -0.083147 0.055557 0.0688609 -0.0707107 0.0707107 
0.08 -0.055557 0.083147 0.0911391 -0.0382683 0.092388 0.10185 -0.019509 0.0980785 
0.111721 0 0.1 0.120374 0.019509 0.0980785 0.127475 0.0382683 0.092388 
0 -0.142857 0 0 -0.134737 -0.0408246 0 -0.140123 -0.0137455 
0.0079048 -0.128741 0 0.016808 -0.112843 0 0.0217619 -0.103997 0 
0.024 -0.1 0 0.0229029 -0.0980785 -0.019509 0.0272492 -0.0980785 0.019509 
0.0325255 -0.092388 0.0382683 0.0396262 -0.083147 0.055557 0.0482785 -0.0707107 0.0707107 
0.0581499 -0.055557 0.083147 0.0688609 -0.0382683 0.092388 0.08 -0.019509 0.0980785 
0.0911391 0 0.1 0.10185 0.019509 0.0980785 0.111721 0.0382683 0.092388 
0.120374 0.055557 0.083147 0 -0.131983 0.0546691 0 -0.140103 0.0138445 
0 -0.134717 0.0409236 0.0079048 -0.118942 0.0492672 0.016808 -0.104253 0.0431831 
0.0217619 -0.0960803 0.0397977 0.024 -0.092388 0.0382683 0.0229029 -0.0980785 0.019509 
0.0272492 -0.083147 0.055557 0.0325255 -0.0707107 0.0707107 0.0396262 -0.055557 0.083147 
0.0482785 -0.0382683 0.092388 0.0581499 -0.019509 0.0980785 0.0688609 0 0.1 
0.08 0.019509 0.0980785 0.0911391 0.0382683 0.092388 0.10185 0.055557 0.083147 
0.111721 0.0707107 0.0707107 0 -0.101015 0.101015 0 -0.124141 0.0664058 
0 -0.108801 0.0893624 0.0079048 -0.0910339 0.0910339 0.016808 -0.0797919 0.0797919 
0.0217619 -0.0735366 0.0735366 0.024 -0.0707107 0.0707107 0.0229029 -0.083147 0.055557 
0.0272492 -0.055557 0.083147 0.0325255 -0.0382683 0.092388 0.0396262 -0.019509 0.0980785 
0.0482785 0 0.1 0.0581499 0.019509 0.0980785 0.0688609 0.0382683 0.092388 
0.08 0.055557 0.083147 0.0911391 0.0707107 0.0707107 0.10185 0.083147 0.055557 
0 -0.0546691 0.131983 0 -0.0892785 0.108858 0 -0.0663219 0.124197 
0.0079048 -0.0492672 0.118942 0.016808 -0.0431831 0.104253 0.0217619 -0.0397977 0.0960803 
0.024 -0.0382683 0.092388 0.0229029 -0.055557 0.083147 0.0272492 -0.019509 0.0980785 
0.0325255 0 0.1 0.0396262 0.019509 0.0980785 0.0482785 0.0382683 0.092388 
0.0581499 0.055557 0.083147 0.0688609 0.0707107 0.0707107 0.08 0.083147 0.055557 
0.0911391 0.092388 0.0382683 0 0 0.142857 0 -0.0408246 0.134737 
0 -0.0137455 0.140123 0.0079048 0 0.128741 0.016808 0 0.112843 
0.0217619 0 0.103997 0.024 0 0.1 0.0229029 -0.019509 0.0980785 
0.0272492 0.019509 0.0980785 0.0325255 0.0382683 0.092388 0.0396262 0.055557 0.083147 
0.0482785 0.0707107 0.0707107 0.0581499 0.083147 0.055557 0.0688609 0.092388 0.0382683 
0.08 0.0980785 0.019509 0 0.0546691 0.131983 0 0.0138445 0.140103 
0 0.0409236 0.134717 0.0079048 0.0492672 0.118942 0.016808 0.0431831 0.104253 
0.0217619 0.0397977 0.0960803 0.024 0.0382683 0.092388 0.0229029 0.019509 0.0980785 
0.0272492 0.055557 0.083147 0.0325255 0.0707107 0.0707107 0.0396262 0.083147 0.055557 
0.0482785 0.092388 0.0382683 0.0581499 0.0980785 0.019509 0.0688609 0.1 0 
0 0.101015 0.101015 0 0.0664058 0.124141 0 0.0893624 0.108801 
0.0079048 0.0910339 0.0910339 0.016808 0.0797919 0.0797919 0.0217619 0.0735366 0.0735366 
0.024 0.0707107 0.0707107 0.0229029 0.055557 0.083147 0.0272492 0.083147 0.055557 
0.0325255 0.092388 0.0382683 0.0396262 0.0980785 0.019509 0.0482785 0.1 0 
0.0581499 0.0980785 -0.019509 0 0.131983 0.0546691 0 0.108858 0.0892785 
0 0.124197 0.0663219 0.0079048 0.118942 0.0492672 0.016808 0.104253 0.0431831 
0.0217619 0.0960803 0.0397977 0.024 0.092388 0.0382683 0.0229029 0.083147 0.055557 
0.0272492 0.0980785 0.019509 0.0325255 0.1 0 0.0396262 0.0980785 -0.019509 
0.0482785 0.092388 -0.0382683 0 0.142857 0 0 0.134737 0.0408246 
0 0.140123 0.0137455 0.0079048 0.128741 0 0.016808 0.112843 0 
0.0217619 0.103997 0 0.024 0.1 0 0.0229029 0.0980785 0.019509 
0.0272492 0.0980785 -0.019509 0.0325255 0.092388 -0.0382683 0.0396262 0.083147 -0.055557 
0 0.131983 -0.0546691 0 0.140103 -0.0138445 0 0.134717 -0.0409236 
0.0079048 0.118942 -0.0492672 0.016808 0.104253 -0.0431831 0.0217619 0.0960803 -0.0397977 
0.024 0.092388 -0.0382683 0.0229029 0.0980785 -0.019509 0.0272492 0.083147 -0.055557 
0.0325255 0.0707107 -0.0707107 0 0.101015 -0.101015 0 0.124141 -0.0664058 
0 0.108801 -0.0893624 0.0079048 0.0910339 -0.0910339 0.016808 0.0797919 -0.0797919 
0.0217619 0.0735366 -0.0735366 0.024 0.0707107 -0.0707107 0.0229029 0.083147 -0.055557 
0.0272492 0.055557 -0.083147 2.82702e-05 0.0892847 -0.108794 0.00649237 0.0715249 -0.107045 
0.0119896 0.0564214 -0.105557 0.0217619 0.0397977 -0.0960803 0.024 0.0382683 -0.092388 
0.0229029 0.055557 -0.083147 0.0187923 0.0312689 -0.10308 0.020621 0.0202887 -0.101998 
0.0223436 0.00994562 -0.10098 0.0229029 0.019509 -0.0980785 -0.06 -0.247016 0.015 
-0.06 -0.247016 0.015 -0.06 -0.23097 0.0956709 -0.06 -0.015 0.015 
-0.06 -0.015 0.015 -0.06 -0.176777 0.176777 -0.06 -0.0956709 0.23097 
-0.06 -0.015 0.247016 -0.06 -0.015 0.247016 -0.06 0.015 0.247016 
-0.06 0.015 0.247016 -0.06 0.0956709 0.23097 -0.06 0.015 0.015 
-0.06 0.015 0.015 -0.06 0.176777 0.176777 -0.06 0.23097 0.0956709 
-0.06 0.247016 0.015 -0.06 0.247016 0.015 -0.06 -0.015 0.15 
-0.06 -0.015 0.15 -0.06 0 0.25 -0.06 0.015 0.15 
-0.06 0.015 0.15 -0.06 -0.015 -0.247016 -0.06 -0.015 -0.247016 
-0.06 -0.0956709 -0.23097 -0.06 -0.015 -0.015 -0.06 -0.015 -0.015 
-0.06 -0.176777 -0.176777 -0.06 -0.23097 -0.0956709 -0.06 -0.247016 -0.015 
-0.06 -0.247016 -0.015 -0.06 0.247016 -0.015 -0.06 0.247016 -0.015 
-0.06 0.23097 -0.0956709 -0.06 0.015 -0.015 -0.06 0.015 -0.015 
[...]
CELL_DATA 2350
FIELD FieldData 1
wave 10 2350 double
-0.651124 -0.643929 -0.636814 -0.629777 -0.622818 -0.615937 -0.609131 -0.6024 -0.595744 
-0.589161 -1.26507 -1.2511 -1.23727 -1.2236 -1.21008 -1.19671 -1.18349 -1.17041 
-1.15748 -1.14469 -1.23566 -1.22201 -1.20851 -1.19515 -1.18195 -1.16889 -1.15597 
-1.1432 -1.13056 -1.11807 -0.0271456 -0.0268457 -0.026549 -0.0262557 -0.0259656 -0.0256786 
-0.0253949 -0.0251143 -0.0248368 -0.0245624 -0.564673 -0.558434 -0.552263 -0.546161 -0.540126 
-0.534158 -0.528256 -0.522419 -0.516646 -0.510938 1.0299 1.01852 1.00726 0.996134 
0.985127 0.974241 0.963477 0.95283 0.942302 0.93189 0.580566 0.574151 0.567806 
0.561532 0.555328 0.549192 0.543123 0.537122 0.531187 0.525317 0.531811 0.525935 
0.520124 0.514376 0.508693 0.503072 0.497513 0.492016 0.486579 0.481203 1.01769 
1.00645 0.995326 0.984328 0.973451 0.962695 0.952058 0.941538 0.931134 0.920845 
0.739075 0.730909 0.722832 0.714845 0.706947 0.699135 0.69141 0.68377 0.676215 
0.668743 1.06384 1.05208 1.04046 1.02896 1.01759 1.00634 0.995225 0.984228 
0.973353 0.962598 1.04204 1.03052 1.01914 1.00788 0.99674 0.985726 0.974834 
0.964063 0.95341 0.942876 0.341455 0.337682 0.333951 0.330261 0.326611 0.323002 
0.319433 0.315904 0.312413 0.308961 1.01637 1.00514 0.994029 0.983045 0.972183 
0.961441 0.950817 0.940311 0.929921 0.919646 -0.463559 -0.458437 -0.453371 -0.448362 
-0.443407 -0.438508 -0.433663 -0.428871 -0.424132 -0.419445 -1.16868 -1.15577 -1.143 
-1.13037 -1.11788 -1.10553 -1.09331 -1.08123 -1.06928 -1.05747 -0.848752 -0.839373 
-0.830098 -0.820926 -0.811855 -0.802885 -0.794013 -0.785239 -0.776563 -0.767982 -1.26891 
-1.25489 -1.24102 -1.22731 -1.21375 -1.20034 -1.18708 -1.17396 -1.16099 -1.14816 
-0.427974 -0.423245 -0.418568 -0.413943 -0.409369 -0.404846 -0.400373 -0.395949 -0.391574 
-0.387247 1.01135 1.00018 0.989125 0.978195 0.967386 0.956697 0.946126 0.935672 
0.925333 0.915108 0.606134 0.599436 0.592813 0.586262 0.579784 0.573378 0.567042 
0.560777 0.554581 0.548453 1.06557 1.0538 1.04215 1.03064 1.01925 1.00799 
0.99685 0.985835 0.974942 0.96417 0.525579 0.519771 0.514028 0.508348 0.502731 
0.497176 0.491682 0.486249 0.480877 0.475563 0.577989 0.571602 0.565286 0.55904 
0.552863 0.546754 0.540713 0.534738 0.528829 0.522986 1.03518 1.02374 1.01243 
1.00125 0.990182 0.979241 0.968421 0.95772 0.947138 0.936672 0.542095 0.536105 
0.530181 0.524323 0.51853 0.5128 0.507134 0.50153 0.495988 0.490508 -0.196359 
-0.194189 -0.192043 -0.189921 -0.187823 -0.185747 -0.183695 -0.181665 -0.179658 -0.177673 
0.542095 0.536105 0.530181 0.524323 0.51853 0.5128 0.507134 0.50153 0.495988 
0.490508 1.06557 1.0538 1.04215 1.03064 1.01925 1.00799 0.99685 0.985835 
0.974942 0.96417 1.03518 1.02374 1.01243 1.00125 0.990182 0.979241 0.968421 
0.95772 0.947138 0.936672 0.577989 0.571602 0.565286 0.55904 0.552863 0.546754 
0.540713 0.534738 0.528829 0.522986 1.01637 1.00514 0.994029 0.983045 0.972183 
0.961441 0.950817 0.940311 0.929921 0.919646 1.01135 1.00018 0.989125 0.978195 
0.967386 0.956697 0.946126 0.935672 0.925333 0.915108 0.525579 0.519771 0.514028 
0.508348 0.502731 0.497176 0.491682 0.486249 0.480877 0.475563 -0.463559 -0.458437 
-0.453371 -0.448362 -0.443407 -0.438508 -0.433663 -0.428871 -0.424132 -0.419445 0.606134 
0.599436 0.592813 0.586262 0.579784 0.573378 0.567042 0.560777 0.554581 0.548453 
0.341455 0.337682 0.333951 0.330261 0.326611 0.323002 0.319433 0.315904 0.312413 
0.308961 -0.196359 -0.194189 -0.192043 -0.189921 -0.187823 -0.185747 -0.183695 -0.181665 
-0.179658 -0.177673 -0.427974 -0.423245 -0.418568 -0.413943 -0.409369 -0.404846 -0.400373 
-0.395949 -0.391574 -0.387247 -1.26891 -1.25489 -1.24102 -1.22731 -1.21375 -1.20034 
-1.18708 -1.17396 -1.16099 -1.14816 -1.16868 -1.15577 -1.143 -1.13037 -1.11788 
-1.10553 -1.09331 -1.08123 -1.06928 -1.05747 -0.848752 -0.839373 -0.830098 -0.820926 
-0.811855 -0.802885 -0.794013 -0.785239 -0.776563 -0.767982 -0.651124 -0.643929 -0.636814 
-0.629777 -0.622818 -0.615937 -0.609131 -0.6024 -0.595744 -0.589161 -1.23566 -1.22201 
-1.20851 -1.19515 -1.18195 -1.16889 -1.15597 -1.1432 -1.13056 -1.11807 -1.26507 
-1.2511 -1.23727 -1.2236 -1.21008 -1.19671 -1.18349 -1.17041 -1.15748 -1.14469 
-0.564673 -0.558434 -0.552263 -0.546161 -0.540126 -0.534158 -0.528256 -0.522419 -0.516646 
-0.510938 1.04204 1.03052 1.01914 1.00788 0.99674 0.985726 0.974834 0.964063 
0.95341 0.942876 -0.0271456 -0.0268457 -0.026549 -0.0262557 -0.0259656 -0.0256786 -0.0253949 
-0.0251143 -0.0248368 -0.0245624 0.531811 0.525935 0.520124 0.514376 0.508693 0.503072 
0.497513 0.492016 0.486579 0.481203 1.06384 1.05208 1.04046 1.02896 1.01759 
1.00634 0.995225 0.984228 0.973353 0.962598 0.580566 0.574151 0.567806 0.561532 
0.555328 0.549192 0.543123 0.537122 0.531187 0.525317 1.0299 1.01852 1.00726 
0.996134 0.985127 0.974241 0.963477 0.95283 0.942302 0.93189 1.01769 1.00645 
0.995326 0.984328 0.973451 0.962695 0.952058 0.941538 0.931134 0.920845 0.739075 
0.730909 0.722832 0.714845 0.706947 0.699135 0.69141 0.68377 0.676215 0.668743 
-0.651124 -0.643929 -0.636814 -0.629777 -0.622818 -0.615937 -0.609131 -0.6024 -0.595744 
-0.589161 -1.26507 -1.2511 -1.23727 -1.2236 -1.21008 -1.19671 -1.18349 -1.17041 
-1.15748 -1.14469 -1.23566 -1.22201 -1.20851 -1.19515 -1.18195 -1.16889 -1.15597 
-1.1432 -1.13056 -1.11807 -0.0271456 -0.0268457 -0.026549 -0.0262557 -0.0259656 -0.0256786 
-0.0253949 -0.0251143 -0.0248368 -0.0245624 -0.564673 -0.558434 -0.552263 -0.546161 -0.540126 
-0.534158 -0.528256 -0.522419 -0.516646 -0.510938 1.0299 1.01852 1.00726 0.996134 
0.985127 0.974241 0.963477 0.95283 0.942302 0.93189 0.580566 0.574151 0.567806 
0.561532 0.555328 0.549192 0.543123 0.537122 0.531187 0.525317 0.531811 0.525935 
0.520124 0.514376 0.508693 0.503072 0.497513 0.492016 0.486579 0.481203 1.01769 
1.00645 0.995326 0.984328 0.973451 0.962695 0.952058 0.941538 0.931134 0.920845 
0.739075 0.730909 0.722832 0.714845 0.706947 0.699135 0.69141 0.68377 0.676215 
0.668743 1.06384 1.05208 1.04046 1.02896 1.01759 1.00634 0.995225 0.984228 
0.973353 0.962598 1.04204 1.03052 1.01914 1.00788 0.99674 0.985726 0.974834 
0.964063 0.95341 0.942876 0.341455 0.337682 0.333951 0.330261 0.326611 0.323002 
0.319433 0.315904 0.312413 0.308961 1.01637 1.00514 0.994029 0.983045 0.972183 
0.961441 0.950817 0.940311 0.929921 0.919646 -0.463559 -0.458437 -0.453371 -0.448362 
-0.443407 -0.438508 -0.433663 -0.428871 -0.424132 -0.419445 -1.16868 -1.15577 -1.143 
-1.13037 -1.11788 -1.10553 -1.09331 -1.08123 -1.06928 -1.05747 -0.848752 -0.839373 
-0.830098 -0.820926 -0.811855 -0.802885 -0.794013 -0.785239 -0.776563 -0.767982 -1.26891 
-1.25489 -1.24102 -1.22731 -1.21375 -1.20034 -1.18708 -1.17396 -1.16099 -1.14816 
-0.427974 -0.423245 -0.418568 -0.413943 -0.409369 -0.404846 -0.400373 -0.395949 -0.391574 
-0.387247 1.01135 1.00018 0.989125 0.978195 0.967386 0.956697 0.946126 0.935672 
0.925333 0.915108 0.606134 0.599436 0.592813 0.586262 0.579784 0.573378 0.567042 
0.560777 0.554581 0.548453 1.06557 1.0538 1.04215 1.03064 1.01925 1.00799 
0.99685 0.985835 0.974942 0.96417 0.525579 0.519771 0.514028 0.508348 0.502731 
0.497176 0.491682 0.486249 0.480877 0.475563 0.577989 0.571602 0.565286 0.55904 
0.552863 0.546754 0.540713 0.534738 0.528829 0.522986 1.03518 1.02374 1.01243 
1.00125 0.990182 0.979241 0.968421 0.95772 0.947138 0.936672 0.542095 0.536105 
0.530181 0.524323 0.51853 0.5128 0.507134 0.50153 0.495988 0.490508 -0.196359 
-0.194189 -0.192043 -0.189921 -0.187823 -0.185747 -0.183695 -0.181665 -0.179658 -0.177673 
0.542095 0.536105 0.530181 0.524323 0.51853 0.5128 0.507134 0.50153 0.495988 
0.490508 1.06557 1.0538 1.04215 1.03064 1.01925 1.00799 0.99685 0.985835 
0.974942 0.96417 1.03518 1.02374 1.01243 1.00125 0.990182 0.979241 0.968421 
0.95772 0.947138 0.936672 0.577989 0.571602 0.565286 0.55904 0.552863 0.546754 
0.540713 0.534738 0.528829 0.522986 1.01637 1.00514 0.994029 0.983045 0.972183 
0.961441 0.950817 0.940311 0.929921 0.919646 1.01135 1.00018 0.989125 0.978195 
0.967386 0.956697 0.946126 0.935672 0.925333 0.915108 0.525579 0.519771 0.514028 
0.508348 0.502731 0.497176 0.491682 0.486249 0.480877 0.475563 -0.463559 -0.458437 
-0.453371 -0.448362 -0.443407 -0.438508 -0.433663 -0.428871 -0.424132 -0.419445 0.606134 
0.599436 0.592813 0.586262 0.579784 0.573378 0.567042 0.560777 0.554581 0.548453 
0.341455 0.337682 0.333951 0.330261 0.326611 0.323002 0.319433 0.315904 0.312413 
0.308961 -0.196359 -0.194189 -0.192043 -0.189921 -0.187823 -0.185747 -0.183695 -0.181665 
-0.179658 -0.177673 -0.427974 -0.423245 -0.418568 -0.413943 -0.409369 -0.404846 -0.400373 
-0.395949 -0.391574 -0.387247 -1.26891 -1.25489 -1.24102 -1.22731 -1.21375 -1.20034 
-1.18708 -1.17396 -1.16099 -1.14816 -1.16868 -1.15577 -1.143 -1.13037 -1.11788 
-1.10553 -1.09331 -1.08123 -1.06928 -1.05747 -0.848752 -0.839373 -0.830098 -0.820926 
-0.811855 -0.802885 -0.794013 -0.785239 -0.776563 -0.767982 -0.651124 -0.643929 -0.636814 
-0.629777 -0.622818 -0.615937 -0.609131 -0.6024 -0.595744 -0.589161 -1.23566 -1.22201 
-1.20851 -1.19515 -1.18195 -1.16889 -1.15597 -1.1432 -1.13056 -1.11807 -1.26507 
-1.2511 -1.23727 -1.2236 -1.21008 -1.19671 -1.18349 -1.17041 -1.15748 -1.14469 
-0.564673 -0.558434 -0.552263 -0.546161 -0.540126 -0.534158 -0.528256 -0.522419 -0.516646 
-0.510938 1.04204 1.03052 1.01914 1.00788 0.99674 0.985726 0.974834 0.964063 
0.95341 0.942876 -0.0271456 -0.0268457 -0.026549 -0.0262557 -0.0259656 -0.0256786 -0.0253949 
-0.0251143 -0.0248368 -0.0245624 0.531811 0.525935 0.520124 0.514376 0.508693 0.503072 
0.497513 0.492016 0.486579 0.481203 1.06384 1.05208 1.04046 1.02896 1.01759 
1.00634 0.995225 0.984228 0.973353 0.962598 0.580566 0.574151 0.567806 0.561532 
0.555328 0.549192 0.543123 0.537122 0.531187 0.525317 1.0299 1.01852 1.00726 
0.996134 0.985127 0.974241 0.963477 0.95283 0.942302 0.93189 1.01769 1.00645 
0.995326 0.984328 0.973451 0.962695 0.952058 0.941538 0.931134 0.920845 0.739075 
0.730909 0.722832 0.714845 0.706947 0.699135 0.69141 0.68377 0.676215 0.668743 
1.00142 0.990357 0.979414 0.968592 0.957889 0.947305 0.936838 0.926486 0.916249 
0.906125 0.570014 0.563716 0.557487 0.551327 0.545235 0.53921 0.533252 0.52736 
0.521533 0.51577 0.589327 0.582815 0.576375 0.570007 0.563708 0.55748 0.55132 
0.545228 0.539203 0.533245 0.984966 0.974082 0.963319 0.952675 0.942148 0.931737 
0.921442 0.911261 0.901191 0.891234 0.589327 0.582815 0.576375 0.570007 0.563708 
0.55748 0.55132 0.545228 0.539203 0.533245 0.984966 0.974082 0.963319 0.952675 
0.942148 0.931737 0.921442 0.911261 0.901191 0.891234 1.00142 0.990357 0.979414 
0.968592 0.957889 0.947305 0.936838 0.926486 0.916249 0.906125 0.570014 0.563716 
0.557487 0.551327 0.545235 0.53921 0.533252 0.52736 0.521533 0.51577 -0.651124 
-0.643929 -0.636814 -0.629777 -0.622818 -0.615937 -0.609131 -0.6024 -0.595744 -0.589161 
-1.26507 -1.2511 -1.23727 -1.2236 -1.21008 -1.19671 -1.18349 -1.17041 -1.15748 
-1.14469 -1.23566 -1.22201 -1.20851 -1.19515 -1.18195 -1.16889 -1.15597 -1.1432 
-1.13056 -1.11807 -0.0271456 -0.0268457 -0.026549 -0.0262557 -0.0259656 -0.0256786 -0.0253949 
-0.0251143 -0.0248368 -0.0245624 -0.564673 -0.558434 -0.552263 -0.546161 -0.540126 -0.534158 
-0.528256 -0.522419 -0.516646 -0.510938 1.0299 1.01852 1.00726 0.996134 0.985127 
0.974241 0.963477 0.95283 0.942302 0.93189 0.580566 0.574151 0.567806 0.561532 
0.555328 0.549192 0.543123 0.537122 0.531187 0.525317 0.531811 0.525935 0.520124 
0.514376 0.508693 0.503072 0.497513 0.492016 0.486579 0.481203 1.01769 1.00645 
0.995326 0.984328 0.973451 0.962695 0.952058 0.941538 0.931134 0.920845 0.739075 
0.730909 0.722832 0.714845 0.706947 0.699135 0.69141 0.68377 0.676215 0.668743 
1.06384 1.05208 1.04046 1.02896 1.01759 1.00634 0.995225 0.984228 0.973353 
0.962598 1.04204 1.03052 1.01914 1.00788 0.99674 0.985726 0.974834 0.964063 
0.95341 0.942876 0.341455 0.337682 0.333951 0.330261 0.326611 0.323002 0.319433 
0.315904 0.312413 0.308961 1.01637 1.00514 0.994029 0.983045 0.972183 0.961441 
0.950817 0.940311 0.929921 0.919646 -0.463559 -0.458437 -0.453371 -0.448362 -0.443407 
-0.438508 -0.433663 -0.428871 -0.424132 -0.419445 -1.16868 -1.15577 -1.143 -1.13037 
-1.11788 -1.10553 -1.09331 -1.08123 -1.06928 -1.05747 -0.848752 -0.839373 -0.830098 
-0.820926 -0.811855 -0.802885 -0.794013 -0.785239 -0.776563 -0.767982 -1.26891 -1.25489 
-1.24102 -1.22731 -1.21375 -1.20034 -1.18708 -1.17396 -1.16099 -1.14816 -0.427974 
-0.423245 -0.418568 -0.413943 -0.409369 -0.404846 -0.400373 -0.395949 -0.391574 -0.387247 
1.01135 1.00018 0.989125 0.978195 0.967386 0.956697 0.946126 0.935672 0.925333 
0.915108 0.606134 0.599436 0.592813 0.586262 0.579784 0.573378 0.567042 0.560777 
0.554581 0.548453 1.06557 1.0538 1.04215 1.03064 1.01925 1.00799 0.99685 
0.985835 0.974942 0.96417 0.525579 0.519771 0.514028 0.508348 0.502731 0.497176 
0.491682 0.486249 0.480877 0.475563 0.577989 0.571602 0.565286 0.55904 0.552863 
0.546754 0.540713 0.534738 0.528829 0.522986 1.03518 1.02374 1.01243 1.00125 
0.990182 0.979241 0.968421 0.95772 0.947138 0.936672 0.542095 0.536105 0.530181 
0.524323 0.51853 0.5128 0.507134 0.50153 0.495988 0.490508 -0.196359 -0.194189 
-0.192043 -0.189921 -0.187823 -0.185747 -0.183695 -0.181665 -0.179658 -0.177673 0.542095 
0.536105 0.530181 0.524323 0.51853 0.5128 0.507134 0.50153 0.495988 0.490508 
1.06557 1.0538 1.04215 1.03064 1.01925 1.00799 0.99685 0.985835 0.974942 
0.96417 1.03518 1.02374 1.01243 1.00125 0.990182 0.979241 0.968421 0.95772 
0.947138 0.936672 0.577989 0.571602 0.565286 0.55904 0.552863 0.546754 0.540713 
0.534738 0.528829 0.522986 1.01637 1.00514 0.994029 0.983045 0.972183 0.961441 
0.950817 0.940311 0.929921 0.919646 1.01135 1.00018 0.989125 0.978195 0.967386 
0.956697 0.946126 0.935672 0.925333 0.915108 0.525579 0.519771 0.514028 0.508348 
0.502731 0.497176 0.491682 0.486249 0.480877 0.475563 -0.463559 -0.458437 -0.453371 
-0.448362 -0.443407 -0.438508 -0.433663 -0.428871 -0.424132 -0.419445 0.606134 0.599436 
0.592813 0.586262 0.579784 0.573378 0.567042 0.560777 0.554581 0.548453 0.341455 
0.337682 0.333951 0.330261 0.326611 0.323002 0.319433 0.315904 0.312413 0.308961 
-0.196359 -0.194189 -0.192043 -0.189921 -0.187823 -0.185747 -0.183695 -0.181665 -0.179658 
-0.177673 -0.427974 -0.423245 -0.418568 -0.413943 -0.409369 -0.404846 -0.400373 -0.395949 
-0.391574 -0.387247 -1.26891 -1.25489 -1.24102 -1.22731 -1.21375 -1.20034 -1.18708 
-1.17396 -1.16099 -1.14816 -1.16868 -1.15577 -1.143 -1.13037 -1.11788 -1.10553 
-1.09331 -1.08123 -1.06928 -1.05747 -0.848752 -0.839373 -0.830098 -0.820926 -0.811855 
-0.802885 -0.794013 -0.785239 -0.776563 -0.767982 -0.651124 -0.643929 -0.636814 -0.629777 
-0.622818 -0.615937 -0.609131 -0.6024 -0.595744 -0.589161 -1.23566 -1.22201 -1.20851 
-1.19515 -1.18195 -1.16889 -1.15597 -1.1432 -1.13056 -1.11807 -1.26507 -1.2511 
-1.23727 -1.2236 -1.21008 -1.19671 -1.18349 -1.17041 -1.15748 -1.14469 -0.564673 
-0.558434 -0.552263 -0.546161 -0.540126 -0.534158 -0.528256 -0.522419 -0.516646 -0.510938 
1.04204 1.03052 1.01914 1.00788 0.99674 0.985726 0.974834 0.964063 0.95341 
0.942876 -0.0271456 -0.0268457 -0.026549 -0.0262557 -0.0259656 -0.0256786 -0.0253949 -0.0251143 
-0.0248368 -0.0245624 0.531811 0.525935 0.520124 0.514376 0.508693 0.503072 0.497513 
0.492016 0.486579 0.481203 1.06384 1.05208 1.04046 1.02896 1.01759 1.00634 
0.995225 0.984228 0.973353 0.962598 0.580566 0.574151 0.567806 0.561532 0.555328 
0.549192 0.543123 0.537122 0.531187 0.525317 1.0299 1.01852 1.00726 0.996134 
0.985127 0.974241 0.963477 0.95283 0.942302 0.93189 1.01769 1.00645 0.995326 
0.984328 0.973451 0.962695 0.952058 0.941538 0.931134 0.920845 0.739075 0.730909 
0.722832 0.714845 0.706947 0.699135 0.69141 0.68377 0.676215 0.668743 -0.651124 
-0.643929 -0.636814 -0.629777 -0.622818 -0.615937 -0.609131 -0.6024 -0.595744 -0.589161 
-1.26507 -1.2511 -1.23727 -1.2236 -1.21008 -1.19671 -1.18349 -1.17041 -1.15748 
-1.14469 -1.23566 -1.22201 -1.20851 -1.19515 -1.18195 -1.16889 -1.15597 -1.1432 
-1.13056 -1.11807 -0.0271456 -0.0268457 -0.026549 -0.0262557 -0.0259656 -0.0256786 -0.0253949 
-0.0251143 -0.0248368 -0.0245624 -0.564673 -0.558434 -0.552263 -0.546161 -0.540126 -0.534158 
-0.528256 -0.522419 -0.516646 -0.510938 1.0299 1.01852 1.00726 0.996134 0.985127 
0.974241 0.963477 0.95283 0.942302 0.93189 0.580566 0.574151 0.567806 0.561532 
0.555328 0.549192 0.543123 0.537122 0.531187 0.525317 0.531811 0.525935 0.520124 
0.514376 0.508693 0.503072 0.497513 0.492016 0.486579 0.481203 1.01769 1.00645 
0.995326 0.984328 0.973451 0.962695 0.952058 0.941538 0.931134 0.920845 0.739075 
0.730909 0.722832 0.714845 0.706947 0.699135 0.69141 0.68377 0.676215 0.668743 
1.06384 1.05208 1.04046 1.02896 1.01759 1.00634 0.995225 0.984228 0.973353 
0.962598 1.04204 1.03052 1.01914 1.00788 0.99674 0.985726 0.974834 0.964063 
0.95341 0.942876 0.341455 0.337682 0.333951 0.330261 0.326611 0.323002 0.319433 
0.315904 0.312413 0.308961 1.01637 1.00514 0.994029 0.983045 0.972183 0.961441 
0.950817 0.940311 0.929921 0.919646 -0.463559 -0.458437 -0.453371 -0.448362 -0.443407 
-0.438508 -0.433663 -0.428871 -0.424132 -0.419445 -1.16868 -1.15577 -1.143 -1.13037 
-1.11788 -1.10553 -1.09331 -1.08123 -1.06928 -1.05747 -0.848752 -0.839373 -0.830098 
-0.820926 -0.811855 -0.802885 -0.794013 -0.785239 -0.776563 -0.767982 -1.26891 -1.25489 
-1.24102 -1.22731 -1.21375 -1.20034 -1.18708 -1.17396 -1.16099 -1.14816 -0.427974 
-0.423245 -0.418568 -0.413943 -0.409369 -0.404846 -0.400373 -0.395949 -0.391574 -0.387247 
1.01135 1.00018 0.989125 0.978195 0.967386 0.956697 0.946126 0.935672 0.925333 
0.915108 0.606134 0.599436 0.592813 0.586262 0.579784 0.573378 0.567042 0.560777 
0.554581 0.548453 1.06557 1.0538 1.04215 1.03064 1.01925 1.00799 0.99685 
0.985835 0.974942 0.96417 0.525579 0.519771 0.514028 0.508348 0.502731 0.497176 
0.491682 0.486249 0.480877 0.475563 0.577989 0.571602 0.565286 0.55904 0.552863 
0.546754 0.540713 0.534738 0.528829 0.522986 1.03518 1.02374 1.01243 1.00125 
0.990182 0.979241 0.968421 0.95772 0.947138 0.936672 0.542095 0.536105 0.530181 
0.524323 0.51853 0.5128 0.507134 0.50153 0.495988 0.490508 -0.196359 -0.194189 
-0.192043 -0.189921 -0.187823 -0.185747 -0.183695 -0.181665 -0.179658 -0.177673 0.542095 
0.536105 0.530181 0.524323 0.51853 0.5128 0.507134 0.50153 0.495988 0.490508 
1.06557 1.0538 1.04215 1.03064 1.01925 1.00799 0.99685 0.985835 0.974942 
0.96417 1.03518 1.02374 1.01243 1.00125 0.990182 0.979241 0.968421 0.95772 
0.947138 0.936672 0.577989 0.571602 0.565286 0.55904 0.552863 0.546754 0.540713 
0.534738 0.528829 0.522986 1.01637 1.00514 0.994029 0.983045 0.972183 0.961441 
0.950817 0.940311 0.929921 0.919646 1.01135 1.00018 0.989125 0.978195 0.967386 
0.956697 0.946126 0.935672 0.925333 0.915108 0.525579 0.519771 0.514028 0.508348 
0.502731 0.497176 0.491682 0.486249 0.480877 0.475563 -0.463559 -0.458437 -0.453371 
-0.448362 -0.443407 -0.438508 -0.433663 -0.428871 -0.424132 -0.419445 0.606134 0.599436 
0.592813 0.586262 0.579784 0.573378 0.567042 0.560777 0.554581 0.548453 0.341455 
0.337682 0.333951 0.330261 0.326611 0.323002 0.319433 0.315904 0.312413 0.308961 
-0.196359 -0.194189 -0.192043 -0.189921 -0.187823 -0.185747 -0.183695 -0.181665 -0.179658 
-0.177673 -0.427974 -0.423245 -0.418568 -0.413943 -0.409369 -0.404846 -0.400373 -0.395949 
-0.391574 -0.387247 -1.26891 -1.25489 -1.24102 -1.22731 -1.21375 -1.20034 -1.18708 
-1.17396 -1.16099 -1.14816 -1.16868 -1.15577 -1.143 -1.13037 -1.11788 -1.10553 
-1.09331 -1.08123 -1.06928 -1.05747 -0.848752 -0.839373 -0.830098 -0.820926 -0.811855 
-0.802885 -0.794013 -0.785239 -0.776563 -0.767982 -0.651124 -0.643929 -0.636814 -0.629777 
-0.622818 -0.615937 -0.609131 -0.6024 -0.595744 -0.589161 -1.23566 -1.22201 -1.20851 
-1.19515 -1.18195 -1.16889 -1.15597 -1.1432 -1.13056 -1.11807 -1.26507 -1.2511 
-1.23727 -1.2236 -1.21008 -1.19671 -1.18349 -1.17041 -1.15748 -1.14469 -0.564673 
-0.558434 -0.552263 -0.546161 -0.540126 -0.534158 -0.528256 -0.522419 -0.516646 -0.510938 