# vtk DataFile Version 3.0
vtk output
ASCII
DATASET POLYDATA
POINTS 1455 float
-0.06 -0.0362132 0.015 -0.06 -0.247016 0.015 -0.06 -0.23097 0.0956709 
-0.06 -0.015 0.015 -0.06 -0.176777 0.176777 -0.06 -0.015 0.0362132 
-0.06 -0.0956709 0.23097 -0.06 -0.015 0.247016 -0.06 0.015 0.0362132 
-0.06 0.015 0.247016 -0.06 0.0956709 0.23097 -0.06 0.015 0.015 
-0.06 0.176777 0.176777 -0.06 0.0362132 0.015 -0.06 0.23097 0.0956709 
-0.06 0.247016 0.015 -0.06 0 0.15 -0.06 -0.015 0.15 
-0.06 0 0.25 -0.06 0.015 0.15 -0.06 -0.015 -0.0362132 
-0.06 -0.015 -0.247016 -0.06 -0.0956709 -0.23097 -0.06 -0.015 -0.015 
-0.06 -0.176777 -0.176777 -0.06 -0.0362132 -0.015 -0.06 -0.23097 -0.0956709 
-0.06 -0.247016 -0.015 -0.06 0.0362132 -0.015 -0.06 0.247016 -0.015 
-0.06 0.23097 -0.0956709 -0.06 0.015 -0.015 -0.06 0.176777 -0.176777 
-0.06 0.015 -0.0362132 -0.06 0.0956709 -0.23097 -0.06 0.015 -0.247016 
-0.06 -0.015 -0.15 -0.06 0 -0.15 -0.06 0 -0.25 
-0.06 0.015 -0.15 -0.06 -0.15 0 -0.06 -0.15 -0.015 
-0.06 -0.25 0 -0.06 -0.15 0.015 -0.06 0.15 0 
-0.06 0.15 0.015 -0.06 0.25 0 -0.06 0.15 -0.015 
-0.03 -0.015 -0.015 -0.03 -0.15 -0.015 -0.03 -0.15 0.015 
-0.03 -0.015 0.015 -0.03 -0.015 -0.0985226 -0.03 -0.015 0.15 
-0.03 0.015 0.15 -0.03 0.015 -0.101477 -0.03 0.015 -0.15 
-0.03 -0.015 -0.15 -0.03 0.15 0.015 -0.03 0.15 -0.015 
-0.03 0.015 -0.015 -0.03 0.015 0.015 -0.03 -0.015 -0.193445 
-0.03 -0.07517 -0.181476 -0.03 0 -0.196429 -0.06 -0.015 -0.0985226 
-0.06 0.015 -0.101477 -0.03 -0.015 0.193445 -0.03 0 0.196429 
-0.03 0.015 0.193445 -0.03 0.015 -0.193445 -0.03 0.154704 -0.115237 
-0.03 0.138896 -0.138896 -0.06 0.213994 -0.121077 -0.03 0.181476 -0.07517 
-0.03 0.07517 -0.181476 -0.03 0.07517 0.181476 -0.03 0.138896 0.138896 
-0.03 0.181476 0.07517 -0.03 0.193445 0.015 -0.03 0.196429 0 
-0.03 0.193445 -0.015 -0.03 -0.138896 -0.138896 -0.03 -0.176501 -0.0826162 
-0.0382239 -0.195044 -0.0807898 -0.03 -0.181476 -0.07517 -0.06 -0.234707 -0.0768834 
-0.03 -0.193445 -0.015 -0.03 -0.196429 0 -0.03 -0.193445 0.015 
-0.03 -0.181476 0.07517 -0.03 -0.138896 0.138896 -0.03 -0.07517 0.181476 
0.024 0 -0.1 1 0 -0.1 1 -0.019509 -0.0980785 
0.0229029 -0.019509 -0.0980785 0 0 -0.142857 0 -0.0546691 -0.131983 
0.0217619 -0.0397977 -0.0960803 0 -0.101015 -0.101015 0.0079048 -0.0910339 -0.0910339 
0 -0.108858 -0.0892785 -0.00784826 0.110925 -0.110925 0 0.0893624 -0.108801 
0 0.0546691 -0.131983 0.016808 0.0431831 -0.104253 0.024 -0.0382683 -0.092388 
1 0 0 1 -0.0382683 -0.092388 1 -0.055557 -0.083147 
1 -0.0707107 -0.0707107 1 -0.083147 -0.055557 1 -0.092388 -0.0382683 
1 -0.0980785 -0.019509 1 -0.1 0 1 -0.0980785 0.019509 
1 -0.092388 0.0382683 1 -0.083147 0.055557 1 -0.0707107 0.0707107 
1 -0.055557 0.083147 1 -0.0382683 0.092388 1 -0.019509 0.0980785 
1 0 0.1 1 0.019509 0.0980785 1 0.0382683 0.092388 
1 0.055557 0.083147 1 0.0707107 0.0707107 1 0.083147 0.055557 
1 0.092388 0.0382683 1 0.0980785 0.019509 1 0.1 0 
1 0.0980785 -0.019509 1 0.092388 -0.0382683 1 0.083147 -0.055557 
1 0.0707107 -0.0707107 1 0.055557 -0.083147 1 0.0382683 -0.092388 
1 0.019509 -0.0980785 0.0272492 -0.055557 -0.083147 0.0325255 -0.0707107 -0.0707107 
0.0396262 -0.083147 -0.055557 0.0482785 -0.092388 -0.0382683 0.0581499 -0.0980785 -0.019509 
0.0688609 -0.1 0 0.08 -0.0980785 0.019509 0.0911391 -0.092388 0.0382683 
0.10185 -0.083147 0.055557 0.111721 -0.0707107 0.0707107 0.120374 -0.055557 0.083147 
0.127475 -0.0382683 0.092388 0.132751 -0.019509 0.0980785 0.136 0 0.1 
0.137097 0.019509 0.0980785 0.136 0.0382683 0.092388 0.132751 0.055557 0.083147 
0.127475 0.0707107 0.0707107 0.120374 0.083147 0.055557 0.111721 0.092388 0.0382683 
0.10185 0.0980785 0.019509 0.0911391 0.1 0 0.08 0.0980785 -0.019509 
0.0688609 0.092388 -0.0382683 0.0581499 0.083147 -0.055557 0.0482785 0.0707107 -0.0707107 
0.0396262 0.055557 -0.083147 0.0325255 0.0382683 -0.092388 0.0272492 0.019509 -0.0980785 
0.016808 -0.0797919 -0.0797919 0.0217619 -0.0735366 -0.0735366 0.024 -0.0707107 -0.0707107 
0.0229029 -0.055557 -0.083147 0.0272492 -0.083147 -0.055557 0.0325255 -0.092388 -0.0382683 
0.0396262 -0.0980785 -0.019509 0.0482785 -0.1 0 0.0581499 -0.0980785 0.019509 
0.0688609 -0.092388 0.0382683 0.08 -0.083147 0.055557 0.0911391 -0.0707107 0.0707107 
0.10185 -0.055557 0.083147 0.111721 -0.0382683 0.092388 0.120374 -0.019509 0.0980785 
0.127475 0 0.1 0.132751 0.019509 0.0980785 0 -0.131983 -0.0546691 
0 -0.124197 -0.0663219 0.0079048 -0.118942 -0.0492672 0.016808 -0.104253 -0.0431831 
0.0217619 -0.0960803 -0.0397977 0.024 -0.092388 -0.0382683 0.0229029 -0.083147 -0.055557 
0.0272492 -0.0980785 -0.019509 0.0325255 -0.1 0 0.0396262 -0.0980785 0.019509 
0.0482785 -0.092388 0.0382683 0.0581499 -0.083147 0.055557 0.0688609 -0.0707107 0.0707107 
0.08 -0.055557 0.083147 0.0911391 -0.0382683 0.092388 0.10185 -0.019509 0.0980785 
0.111721 0 0.1 0.120374 0.019509 0.0980785 0.127475 0.0382683 0.092388 
0 -0.142857 0 0 -0.134737 -0.0408246 0 -0.140123 -0.0137455 
0.0079048 -0.128741 0 0.016808 -0.112843 0 0.0217619 -0.103997 0 
0.024 -0.1 0 0.0229029 -0.0980785 -0.019509 0.0272492 -0.0980785 0.019509 
0.0325255 -0.092388 0.0382683 0.0396262 -0.083147 0.055557 0.0482785 -0.0707107 0.0707107 
0.0581499 -0.055557 0.083147 0.0688609 -0.0382683 0.092388 0.08 -0.019509 0.0980785 
0.0911391 0 0.1 0.10185 0.019509 0.0980785 0.111721 0.0382683 0.092388 
0.120374 0.055557 0.083147 0 -0.131983 0.0546691 0 -0.140103 0.0138445 
0 -0.134717 0.0409236 0.0079048 -0.118942 0.0492672 0.016808 -0.104253 0.0431831 
0.0217619 -0.0960803 0.0397977 0.024 -0.092388 0.0382683 0.0229029 -0.0980785 0.019509 
0.0272492 -0.083147 0.055557 0.0325255 -0.0707107 0.0707107 0.0396262 -0.055557 0.083147 
0.0482785 -0.0382683 0.092388 0.0581499 -0.019509 0.0980785 0.0688609 0 0.1 
0.08 0.019509 0.0980785 0.0911391 0.0382683 0.092388 0.10185 0.055557 0.083147 
0.111721 0.0707107 0.0707107 0 -0.101015 0.101015 0 -0.124141 0.0664058 
0 -0.108801 0.0893624 0.0079048 -0.0910339 0.0910339 0.016808 -0.0797919 0.0797919 
0.0217619 -0.0735366 0.0735366 0.024 -0.0707107 0.0707107 0.0229029 -0.083147 0.055557 
0.0272492 -0.055557 0.083147 0.0325255 -0.0382683 0.092388 0.0396262 -0.019509 0.0980785 
0.0482785 0 0.1 0.0581499 0.019509 0.0980785 0.0688609 0.0382683 0.092388 
0.08 0.055557 0.083147 0.0911391 0.0707107 0.0707107 0.10185 0.083147 0.055557 
0 -0.0546691 0.131983 0 -0.0892785 0.108858 0 -0.0663219 0.124197 
0.0079048 -0.0492672 0.118942 0.016808 -0.0431831 0.104253 0.0217619 -0.0397977 0.0960803 
0.024 -0.0382683 0.092388 0.0229029 -0.055557 0.083147 0.0272492 -0.019509 0.0980785 
0.0325255 0 0.1 0.0396262 0.019509 0.0980785 0.0482785 0.0382683 0.092388 
0.0581499 0.055557 0.083147 0.0688609 0.0707107 0.0707107 0.08 0.083147 0.055557 
0.0911391 0.092388 0.0382683 0 0 0.142857 0 -0.0408246 0.134737 
0 -0.0137455 0.140123 0.0079048 0 0.128741 0.016808 0 0.112843 
0.0217619 0 0.103997 0.024 0 0.1 0.0229029 -0.019509 0.0980785 
0.0272492 0.019509 0.0980785 0.0325255 0.0382683 0.092388 0.0396262 0.055557 0.083147 
0.0482785 0.0707107 0.0707107 0.0581499 0.083147 0.055557 0.0688609 0.092388 0.0382683 
0.08 0.0980785 0.019509 0 0.0546691 0.131983 0 0.0138445 0.140103 
0 0.0409236 0.134717 0.0079048 0.0492672 0.118942 0.016808 0.0431831 0.104253 
0.0217619 0.0397977 0.0960803 0.024 0.0382683 0.092388 0.0229029 0.019509 0.0980785 
0.0272492 0.055557 0.083147 0.0325255 0.0707107 0.0707107 0.0396262 0.083147 0.055557 
0.0482785 0.092388 0.0382683 0.0581499 0.0980785 0.019509 0.0688609 0.1 0 
0 0.101015 0.101015 0 0.0664058 0.124141 0 0.0893624 0.108801 
0.0079048 0.0910339 0.0910339 0.016808 0.0797919 0.0797919 0.0217619 0.0735366 0.0735366 
0.024 0.0707107 0.0707107 0.0229029 0.055557 0.083147 0.0272492 0.083147 0.055557 
0.0325255 0.092388 0.0382683 0.0396262 0.0980785 0.019509 0.0482785 0.1 0 
0.0581499 0.0980785 -0.019509 0 0.131983 0.0546691 0 0.108858 0.0892785 
0 0.124197 0.0663219 0.0079048 0.118942 0.0492672 0.016808 0.104253 0.0431831 
0.0217619 0.0960803 0.0397977 0.024 0.092388 0.0382683 0.0229029 0.083147 0.055557 
0.0272492 0.0980785 0.019509 0.0325255 0.1 0 0.0396262 0.0980785 -0.019509 
0.0482785 0.092388 -0.0382683 0 0.142857 0 0 0.134737 0.0408246 
0 0.140123 0.0137455 0.0079048 0.128741 0 0.016808 0.112843 0 
0.0217619 0.103997 0 0.024 0.1 0 0.0229029 0.0980785 0.019509 
0.0272492 0.0980785 -0.019509 0.0325255 0.092388 -0.0382683 0.0396262 0.083147 -0.055557 
0 0.131983 -0.0546691 0 0.140103 -0.0138445 0 0.134717 -0.0409236 
0.0079048 0.118942 -0.0492672 0.016808 0.104253 -0.0431831 0.0217619 0.0960803 -0.0397977 
0.024 0.092388 -0.0382683 0.0229029 0.0980785 -0.019509 0.0272492 0.083147 -0.055557 
0.0325255 0.0707107 -0.0707107 0 0.101015 -0.101015 0 0.124141 -0.0664058 
0 0.108801 -0.0893624 0.0079048 0.0910339 -0.0910339 0.016808 0.0797919 -0.0797919 
0.0217619 0.0735366 -0.0735366 0.024 0.0707107 -0.0707107 0.0229029 0.083147 -0.055557 
0.0272492 0.055557 -0.083147 2.82702e-05 0.0892847 -0.108794 0.00649237 0.0715249 -0.107045 
0.0119896 0.0564214 -0.105557 0.0217619 0.0397977 -0.0960803 0.024 0.0382683 -0.092388 
0.0229029 0.055557 -0.083147 0.0187923 0.0312689 -0.10308 0.020621 0.0202887 -0.101998 
0.0223436 0.00994562 -0.10098 0.0229029 0.019509 -0.0980785 -0.06 -0.247016 0.015 
-0.06 -0.247016 0.015 -0.06 -0.23097 0.0956709 -0.06 -0.015 0.015 
-0.06 -0.015 0.015 -0.06 -0.176777 0.176777 -0.06 -0.0956709 0.23097 
-0.06 -0.015 0.247016 -0.06 -0.015 0.247016 -0.06 0.015 0.247016 
-0.06 0.015 0.247016 -0.06 0.0956709 0.23097 -0.06 0.015 0.015 
-0.06 0.015 0.015 -0.06 0.176777 0.176777 -0.06 0.23097 0.0956709 
-0.06 0.247016 0.015 -0.06 0.247016 0.015 -0.06 -0.015 0.15 
-0.06 -0.015 0.15 -0.06 0 0.25 -0.06 0.015 0.15 
-0.06 0.015 0.15 -0.06 -0.015 -0.247016 -0.06 -0.015 -0.247016 
-0.06 -0.0956709 -0.23097 -0.06 -0.015 -0.015 -0.06 -0.015 -0.015 
-0.06 -0.176777 -0.176777 -0.06 -0.23097 -0.0956709 -0.06 -0.247016 -0.015 
-0.06 -0.247016 -0.015 -0.06 0.247016 -0.015 -0.06 0.247016 -0.015 
-0.06 0.23097 -0.0956709 -0.06 0.015 -0.015 -0.06 0.015 -0.015 
[...]
POINT_DATA 1455
COLOR_SCALARS Colors 3
0.741176 1 0.258824 0.505882 1 0.494118 0.45098 1 0.54902 
1 0.862745 0 0.45098 1 0.54902 
0.741176 1 0.258824 0.45098 1 0.54902 
0.505882 1 0.494118 0.741176 1 0.258824 
0.505882 1 0.494118 0.45098 1 0.54902 
1 0.862745 0 0.45098 1 0.54902 
0.741176 1 0.258824 0.45098 1 0.54902 
0.505882 1 0.494118 0.45098 1 0.54902 
0.470588 1 0.529412 0.45098 1 0.54902 
0.470588 1 0.529412 0.741176 1 0.258824 
0.505882 1 0.494118 0.45098 1 0.54902 
1 0.862745 0 0.45098 1 0.54902 
0.741176 1 0.258824 0.45098 1 0.54902 
0.505882 1 0.494118 0.741176 1 0.258824 
0.505882 1 0.494118 0.45098 1 0.54902 
1 0.862745 0 0.45098 1 0.54902 
0.741176 1 0.258824 0.45098 1 0.54902 
0.505882 1 0.494118 0.470588 1 0.529412 
0.45098 1 0.54902 0.45098 1 0.54902 
0.470588 1 0.529412 0.45098 1 0.54902 
0.470588 1 0.529412 0.45098 1 0.54902 
0.470588 1 0.529412 0.45098 1 0.54902 
0.470588 1 0.529412 0.45098 1 0.54902 
0.470588 1 0.529412 1 0.192157 0 
0.490196 1 0.509804 0.490196 1 0.509804 
1 0.192157 0 0 0 0.803922 
0.490196 1 0.509804 0.490196 1 0.509804 
0 0 0.811765 0.490196 1 0.509804 
0.490196 1 0.509804 0.490196 1 0.509804 
0.490196 1 0.509804 1 0.192157 0 
1 0.192157 0 1 0.0980392 0 
1 0.0901961 0 1 0.0901961 0 
0 0.619608 1 0 0.627451 1 
1 0.0980392 0 1 0.0901961 0 
1 0.0980392 0 1 0.0980392 0 
1 0.109804 0 1 0.0901961 0 
0.541176 1 0.458824 1 0.0901961 0 
1 0.0901961 0 1 0.0901961 0 
1 0.0901961 0 1 0.0901961 0 
1 0.0980392 0 1 0.0901961 0 
1 0.0980392 0 1 0.0901961 0 
1 0.0941176 0 1 0.345098 0 
1 0.0901961 0 0.517647 1 0.482353 
1 0.0980392 0 1 0.0901961 0 
1 0.0980392 0 1 0.0901961 0 
1 0.0901961 0 1 0.0901961 0 
0 0 0.698039 0 0 0.501961 
0 0 0.501961 0 0 0.678431 
0.0352941 1 0.964706 0.0352941 1 0.964706 
0 0 0.682353 0.0352941 1 0.964706 
0 0.290196 1 0 0.917647 1 
0.839216 1 0.160784 0 0.917647 1 
0.0352941 1 0.964706 0 0 0.768627 
0 0 0.698039 0.501961 0 0 
0 0 0.501961 0 0 0.501961 
0 0 0.501961 0 0 0.501961 
0 0 0.501961 0 0 0.501961 
0 0 0.501961 0 0 0.501961 
0 0 0.501961 0 0 0.501961 
0 0 0.501961 0 0 0.501961 
0 0 0.501961 0 0 0.501961 
0 0 0.501961 0 0 0.501961 
0 0 0.501961 0 0 0.501961 
0 0 0.501961 0 0 0.501961 
0 0 0.501961 0 0 0.501961 
0 0 0.501961 0 0 0.501961 
0 0 0.501961 0 0 0.501961 
0 0 0.501961 0 0 0.501961 
0 0 0.501961 0 0 0.501961 
0 0 0.752941 0 0 0.854902 
0 0.0196078 1 0 0.254902 1 
0 0.560784 1 0 0.92549 1 
0.329412 1 0.670588 0.737255 1 0.262745 
1 0.878431 0 1 0.552941 0 
1 0.294118 0 1 0.105882 0 
0.980392 0 0 0.913725 0 0 
0.890196 0 0 0.913725 0 0 
0.980392 0 0 1 0.105882 0 
1 0.294118 0 1 0.552941 0 
1 0.878431 0 0.737255 1 0.262745 
0.329412 1 0.670588 0 0.92549 1 
0 0.560784 1 0 0.254902 1 
0 0.0196078 1 0 0 0.854902 
0 0 0.752941 0 0 0.768627 
0 0 0.682353 0 0 0.698039 
0 0 0.678431 0 0 0.752941 
0 0 0.854902 0 0.0196078 1 
0 0.254902 1 0 0.560784 1 
0 0.92549 1 0.329412 1 0.670588 
0.737255 1 0.262745 1 0.878431 0 
1 0.552941 0 1 0.294118 0 
1 0.105882 0 0.980392 0 0 
0.0352941 1 0.964706 0 0.917647 1 
0 0.290196 1 0 0 0.768627 
0 0 0.682353 0 0 0.698039 
0 0 0.678431 0 0 0.752941 
0 0 0.854902 0 0.0196078 1 
0 0.254902 1 0 0.560784 1 
0 0.92549 1 0.329412 1 0.670588 
0.737255 1 0.262745 1 0.878431 0 
1 0.552941 0 1 0.294118 0 
1 0.105882 0 0.0352941 1 0.964706 
0 0.917647 1 0 0.917647 1 
0 0.290196 1 0 0 0.768627 
0 0 0.682353 0 0 0.698039 
0 0 0.678431 0 0 0.752941 
0 0 0.854902 0 0.0196078 1 
0 0.254902 1 0 0.560784 1 
0 0.92549 1 0.329412 1 0.670588 
0.737255 1 0.262745 1 0.878431 0 
1 0.552941 0 1 0.294118 0 
0.0352941 1 0.964706 0 0.917647 1 
0 0.917647 1 0 0.290196 1 
0 0 0.768627 0 0 0.682353 
0 0 0.698039 0 0 0.678431 
0 0 0.752941 0 0 0.854902 
0 0.0196078 1 0 0.254902 1 
0 0.560784 1 0 0.92549 1 
0.329412 1 0.670588 0.737255 1 0.262745 
1 0.878431 0 1 0.552941 0 
0.0352941 1 0.964706 0 0.917647 1 
0 0.917647 1 0 0.290196 1 
0 0 0.768627 0 0 0.682353 
0 0 0.698039 0 0 0.678431 
0 0 0.752941 0 0 0.854902 
0 0.0196078 1 0 0.254902 1 
0 0.560784 1 0 0.92549 1 
0.329412 1 0.670588 0.737255 1 0.262745 
1 0.878431 0 0.0352941 1 0.964706 
0 0.917647 1 0 0.917647 1 
0 0.290196 1 0 0 0.768627 
0 0 0.682353 0 0 0.698039 
0 0 0.678431 0 0 0.752941 
0 0 0.854902 0 0.0196078 1 
0 0.254902 1 0 0.560784 1 
0 0.92549 1 0.329412 1 0.670588 
0.737255 1 0.262745 0.0352941 1 0.964706 
0 0.917647 1 0 0.917647 1 
0 0.290196 1 0 0 0.768627 
0 0 0.682353 0 0 0.698039 
0 0 0.678431 0 0 0.752941 
0 0 0.854902 0 0.0196078 1 
0 0.254902 1 0 0.560784 1 
0 0.92549 1 0.329412 1 0.670588 
0.0352941 1 0.964706 0 0.917647 1 
0 0.917647 1 0 0.290196 1 
0 0 0.768627 0 0 0.682353 
0 0 0.698039 0 0 0.678431 
0 0 0.752941 0 0 0.854902 
0 0.0196078 1 0 0.254902 1 
0 0.560784 1 0 0.92549 1 
0.0352941 1 0.964706 0 0.917647 1 
0 0.917647 1 0 0.290196 1 
0 0 0.768627 0 0 0.682353 
0 0 0.698039 0 0 0.678431 
0 0 0.752941 0 0 0.854902 
0 0.0196078 1 0 0.254902 1 
0 0.560784 1 0.0352941 1 0.964706 
0 0.917647 1 0 0.917647 1 
0 0.290196 1 0 0 0.768627 
0 0 0.682353 0 0 0.698039 
0 0 0.678431 0 0 0.752941 
0 0 0.854902 0 0.0196078 1 
0 0.254902 1 0.0352941 1 0.964706 
0 0.917647 1 0 0.917647 1 
0 0.290196 1 0 0 0.768627 
0 0 0.682353 0 0 0.698039 
0 0 0.678431 0 0 0.752941 
0 0 0.854902 0 0.0196078 1 
0.0352941 1 0.964706 0 0.917647 1 
0 0.917647 1 0 0.290196 1 
0 0 0.768627 0 0 0.682353 
0 0 0.698039 0 0 0.678431 
0 0 0.752941 0 0 0.854902 
0.0352941 1 0.964706 0 0.917647 1 
0 0.917647 1 0 0.290196 1 
0 0 0.768627 0 0 0.682353 
0 0 0.698039 0 0 0.678431 
0 0 0.752941 0 0.917647 1 
0 0.286275 1 0 0 0.933333 
0 0 0.682353 0 0 0.698039 
0 0 0.678431 0 0 0.686275 
0 0 0.666667 0 0 0.67451 
0 0 0.678431 0.505882 1 0.494118 
0.505882 1 0.494118 0.45098 1 0.54902 
1 0.862745 0 1 0.862745 0 
0.45098 1 0.54902 0.45098 1 0.54902 
0.505882 1 0.494118 0.505882 1 0.494118 
0.505882 1 0.494118 0.505882 1 0.494118 
0.45098 1 0.54902 1 0.862745 0 
1 0.862745 0 0.45098 1 0.54902 
0.45098 1 0.54902 0.505882 1 0.494118 
0.505882 1 0.494118 0.470588 1 0.529412 
0.470588 1 0.529412 0.45098 1 0.54902 
0.470588 1 0.529412 0.470588 1 0.529412 
0.505882 1 0.494118 0.505882 1 0.494118 
0.45098 1 0.54902 1 0.862745 0 
1 0.862745 0 0.45098 1 0.54902 
0.45098 1 0.54902 0.505882 1 0.494118 
0.505882 1 0.494118 0.505882 1 0.494118 
0.505882 1 0.494118 0.45098 1 0.54902 
1 0.862745 0 1 0.862745 0 
0.45098 1 0.54902 0.45098 1 0.54902 
0.505882 1 0.494118 0.505882 1 0.494118 
0.470588 1 0.529412 0.470588 1 0.529412 
0.45098 1 0.54902 0.470588 1 0.529412 
0.470588 1 0.529412 0.470588 1 0.529412 
0.470588 1 0.529412 0.45098 1 0.54902 
0.470588 1 0.529412 0.470588 1 0.529412 
0.470588 1 0.529412 0.470588 1 0.529412 
0.45098 1 0.54902 0.470588 1 0.529412 
0.470588 1 0.529412 1 0.192157 0 
1 0.192157 0 0.490196 1 0.509804 
0.490196 1 0.509804 0.490196 1 0.509804 
0.490196 1 0.509804 1 0.192157 0 
1 0.192157 0 0 0 0.803922 
0.490196 1 0.509804 0.490196 1 0.509804 
0.490196 1 0.509804 0.490196 1 0.509804 
0 0 0.811765 0.490196 1 0.509804 
0.490196 1 0.509804 0.490196 1 0.509804 
0.490196 1 0.509804 0.490196 1 0.509804 
0.490196 1 0.509804 0.490196 1 0.509804 
0.490196 1 0.509804 1 0.192157 0 
1 0.192157 0 1 0.192157 0 
1 0.192157 0 1 0.0901961 0 
1 0.0901961 0 1 0.0901961 0 
1 0.0901961 0 0 0 0.698039 
0 0 0.698039 0 0 0.501961 
0 0 0.501961 0 0 0.678431 
0 0 0.768627 0 0 0.698039 
0 0 0.501961 0 0 0.501961 
0 0 0.501961 0 0 0.501961 
0 0 0.501961 0 0 0.501961 
0 0 0.501961 0 0 0.501961 
0 0 0.501961 0 0 0.501961 
0 0 0.501961 0 0 0.501961 
0 0 0.501961 0 0 0.501961 
0 0 0.501961 0 0 0.501961 
0 0 0.501961 0 0 0.501961 
0 0 0.501961 0 0 0.501961 
0 0 0.501961 0 0 0.501961 
0 0 0.501961 0 0 0.501961 
0 0 0.501961 0 0 0.501961 
0 0 0.501961 0 0 0.501961 
0 0 0.501961 0 0 0.501961 
0 0 0.698039 0 0 0.678431 
0.0352941 1 0.964706 0 0 0.698039 
0 0 0.678431 0.0352941 1 0.964706 
0 0 0.698039 0 0 0.678431 
0.0352941 1 0.964706 0 0 0.698039 
0 0 0.678431 0.0352941 1 0.964706 
0 0 0.698039 0 0 0.678431 
0.0352941 1 0.964706 0 0 0.698039 
0 0 0.678431 0.0352941 1 0.964706 
0 0 0.698039 0 0 0.678431 
0.0352941 1 0.964706 0 0 0.698039 
0 0 0.678431 0.0352941 1 0.964706 
0 0 0.698039 0 0 0.678431 
0.0352941 1 0.964706 0 0 0.698039 
0 0 0.678431 0.0352941 1 0.964706 
0 0 0.698039 0 0 0.678431 
0.0352941 1 0.964706 0 0 0.698039 
0 0 0.678431 0 0 0.698039 
0 0 0.678431 0 0 0.698039 
0 0 0.678431 0 0 0.67451 
0 0 0.678431 0 0.772549 1 
0 0.815686 1 0.768627 1 0.231373 
1 0.827451 0 0.552941 1 0.447059 
1 0.839216 0 0.815686 1 0.184314 
0 0.85098 1 0 0.74902 1 
1 0.843137 0 0.556863 1 0.443137 
1 0.823529 0 0.658824 1 0.341176 
0 0.694118 1 0.0196078 1 0.980392 
1 0.835294 0 0.380392 1 0.619608 
0.556863 1 0.443137 1 0.839216 0 
0.815686 1 0.184314 0 0.85098 1 
0 0.74902 1 1 0.835294 0 
0.380392 1 0.619608 0.552941 1 0.447059 
1 0.827451 0 0.768627 1 0.231373 
0 0.815686 1 0 0.772549 1 
1 0.843137 0 0 0.772549 1 
0 0.815686 1 0.768627 1 0.231373 
1 0.827451 0 0.552941 1 0.447059 
1 0.839216 0 0.815686 1 0.184314 
0 0.85098 1 0 0.74902 1 
1 0.843137 0 0.556863 1 0.443137 
1 0.823529 0 0.658824 1 0.341176 
0 0.694118 1 0.0196078 1 0.980392 
1 0.835294 0 0.380392 1 0.619608 
0.556863 1 0.443137 1 0.839216 0 
0.815686 1 0.184314 0 0.85098 1 
0 0.74902 1 1 0.835294 0 
0.380392 1 0.619608 0.552941 1 0.447059 
1 0.827451 0 0.768627 1 0.231373 
0 0.815686 1 0 0.772549 1 
1 0.843137 0 1 0.811765 0 
1 0.811765 0 1 0.811765 0 
0 0.772549 1 0 0.815686 1 
0.768627 1 0.231373 1 0.827451 0 
0.552941 1 0.447059 1 0.839216 0 
0.815686 1 0.184314 0 0.85098 1 
0 0.74902 1 1 0.843137 0 
0.556863 1 0.443137 1 0.823529 0 
0.658824 1 0.341176 0 0.694118 1 
0.0196078 1 0.980392 1 0.835294 0 
0.380392 1 0.619608 0.556863 1 0.443137 
1 0.839216 0 0.815686 1 0.184314 
0 0.85098 1 0 0.74902 1 
1 0.835294 0 0.380392 1 0.619608 
0.552941 1 0.447059 1 0.827451 0 
0.768627 1 0.231373 0 0.815686 1 
0 0.772549 1 1 0.843137 0 
0 0.772549 1 0 0.815686 1 
0.768627 1 0.231373 1 0.827451 0 
0.552941 1 0.447059 1 0.839216 0 
0.815686 1 0.184314 0 0.85098 1 
0 0.74902 1 1 0.843137 0 
0.556863 1 0.443137 1 0.823529 0 
0.658824 1 0.341176 0 0.694118 1 
0.0196078 1 0.980392 1 0.835294 0 
0.380392 1 0.619608 0.556863 1 0.443137 
1 0.839216 0 0.815686 1 0.184314 
0 0.85098 1 0 0.74902 1 
1 0.835294 0 0.380392 1 0.619608 
0.552941 1 0.447059 1 0.827451 0 
0.768627 1 0.231373 0 0.815686 1 
0 0.772549 1 1 0.843137 0 
1 0.811765 0 1 0.811765 0 
1 0.811765 0 1 0.811765 0 
1 0.811765 0 1 0.811765 0 
1 0.811765 0 1 0.811765 0 
1 0.811765 0 0 0.835294 1 
0 0 0.843137 0 0 0.843137 
0 0.835294 1 0.396078 1 0.603922 
1 0.00784314 0 0.305882 1 0.694118 
0 0 0.807843 0 0 0.886275 
0 0.552941 1 1 0.470588 0 
1 0.258824 0 0 0.854902 1 
0 0.321569 1 0 0 0.843137 
0 0.835294 1 0 0.835294 1 
0 0 0.843137 1 0.666667 0 
1 0.109804 0 1 0.721569 0 
0.552941 1 0.447059 1 0.721569 0 
0 0.835294 1 0 0 0.843137 
0 0.639216 1 0.141176 1 0.858824 
0.141176 1 0.858824 0 0.639216 1 
0 0 0.843137 0 0.835294 1 
0 0.321569 1 0 0.882353 1 
0.219608 1 0.780392 0 0.992157 1 
0.141176 1 0.858824 0 0.639216 1 
0 0 0.843137 0 0.835294 1 
0 0.835294 1 0 0 0.843137 
0 0.639216 1 0.141176 1 0.858824 
0 0.921569 1 0.184314 1 0.815686 
0 0.835294 1 0 0 0.843137 
0 0.639216 1 0.141176 1 0.858824 
1 0.666667 0 1 0.721569 0 
1 0.666667 0 1 0.666667 0 
1 0.721569 0 0.545098 1 0.454902 
1 0.627451 0 1 0.721569 0 
1 0.109804 0 1 0.721569 0 
0.556863 1 0.443137 1 0.631373 0 
0.552941 1 0.447059 1 0.109804 0 
1 0.109804 0 1 0.721569 0 
0.552941 1 0.447059 1 0.109804 0 
1 0.721569 0 0.556863 1 0.443137 
1 0.631373 0 1 0.109804 0 
1 0.721569 0 0.556863 1 0.443137 
1 0.631373 0 0.552941 1 0.447059 
1 0.109804 0 1 0.666667 0 
1 0.721569 0 1 0.666667 0 
1 0.109804 0 0.552941 1 0.447059 
1 0.109804 0 1 0.721569 0 
0.556863 1 0.443137 1 0.631373 0 
0 0 0.843137 0 0.835294 1 
0.141176 1 0.858824 0 0.639216 1 
1 0.109804 0 0.556863 1 0.443137 
1 0.603922 0 1 0.109804 0 
1 0.666667 0 0.556863 1 0.443137 
1 0.721569 0 1 0.666667 0 
1 0.109804 0 1 0.721569 0 
0.552941 1 0.447059 1 0.109804 0 
1 0.721569 0 0.556863 1 0.443137 
1 0.631373 0 1 0.109804 0 
1 0.721569 0 0.556863 1 0.443137 
1 0.631373 0 0.552941 1 0.447059 
1 0.109804 0 0.0666667 1 0.933333 
1 0.258824 0 0.6 0 0 
1 0.478431 0 0 0.803922 1 
0 0 0.592157 0 0 0.85098 
0.368627 1 0.631373 1 0.0470588 0 
0.643137 0 0 1 0.741176 0 
0 0.52549 1 0 0 0.52549 
0 0.0431373 1 0.67451 1 0.32549 
0.870588 0 0 0.737255 0 0 
0.972549 1 0.027451 0 0.270588 1 
0 0.270588 1 0.976471 1 0.0235294 
0.733333 0 0 0.87451 0 0 
0.662745 1 0.337255 0 0.0352941 1 
0 0 0.52549 0 0.537255 1 
1 0.72549 0 0.639216 0 0 
1 0.0588235 0 0.345098 1 0.654902 
0 0 0.835294 0 0 0.603922 
0 0.831373 1 1 0.45098 0 
0.596078 0 0 1 0.286275 0 
0.0313725 1 0.968627 1 0.545098 0 
0 0.878431 1 1 0.545098 0 
1 0.109804 0 0 0.878431 1 
1 0.545098 0 0 0 0.780392 
1 0.682353 0 1 0.545098 0 
0 0.878431 1 1 0.109804 0 
0.45098 1 0.54902 0 0.45098 1 
1 0.529412 0 1 0.529412 0 
0 0.45098 1 1 0.529412 0 
0 0.45098 1 1 0.529412 0 
0 0.45098 1 1 0.529412 0 
0 0.45098 1 1 0.529412 0 
0 0.45098 1 0.45098 1 0.54902 
1 0.529412 0 0 0.45098 1 
0.45098 1 0.54902 1 0.529412 0 
0 0.45098 1 1 0.529412 0 
0 0.45098 1 1 0.529412 0 
0 0.45098 1 1 0.529412 0 
0 0.45098 1 1 0.529412 0 
0 0.45098 1 0.45098 1 0.54902 
1 0.529412 0 0 0.45098 1 
0.45098 1 0.54902 1 0.529412 0 
0 0.45098 1 1 0.529412 0 
0 0.45098 1 1 0.529412 0 
0 0.45098 1 1 0.529412 0 
0 0.45098 1 1 0.529412 0 
0 0.45098 1 0.45098 1 0.54902 
1 0.529412 0 0 0.45098 1 
0.45098 1 0.54902 1 0.529412 0 
0 0.45098 1 1 0.529412 0 
0 0.45098 1 1 0.529412 0 
0 0.45098 1 1 0.529412 0 
0 0.45098 1 1 0.529412 0 
0 0.45098 1 0.45098 1 0.54902 
0 0.270588 1 0.972549 1 0.027451 
0.737255 0 0 0.870588 0 0 
0.67451 1 0.32549 0 0.0431373 1 
0 0 0.52549 0 0.52549 1 
1 0.741176 0 0.643137 0 0 
1 0.0470588 0 0.368627 1 0.631373 
0 0 0.85098 0 0 0.592157 
0 0.803922 1 1 0.478431 0 
0.6 0 0 1 0.258824 0 
0.0666667 1 0.933333 0 0.262745 1 
0.960784 1 0.0392157 0.741176 0 0 
0.858824 0 0 0.701961 1 0.298039 
0 0.0666667 1 0 0 0.517647 
0 0.482353 1 1 0.792157 0 
0.658824 0 0 1 0.00392157 0 
0.439216 1 0.560784 0 0 0.894118 
0 0 0.568627 0 0.717647 1 
1 0.556863 0 0.611765 0 0 
1 0.180392 0 0.180392 1 0.819608 
0 0.258824 1 0.941176 1 0.0588235 
0.752941 0 0 0.839216 0 0 
0.74902 1 0.25098 0 0.109804 1 
0 0 0.509804 0 0.415686 1 
1 0.87451 0 0.686275 0 0 
0.941176 0 0 0.556863 1 0.443137 
0 0 0.976471 0 0 0.537255 
0 0.584314 1 1 0.694118 0 
0.635294 0 0 1 0.0588235 0 
0.364706 1 0.635294 0 0.247059 1 
0.913725 1 0.0862745 0.768627 0 0 
0.815686 0 0 0.815686 1 0.184314 
0 0.168627 1 0 0 0.501961 
0 0.329412 1 1 0.984314 0 
0.729412 0 0 0.866667 0 0 
0.713725 1 0.286275 0 0.0901961 1 
0 0 0.509804 0 0.415686 1 
1 0.886275 0 0.694118 0 0 
0.917647 0 0 0.611765 1 0.388235 
0 0.235294 1 0.886275 1 0.113725 
0.792157 0 0 0.788235 0 0 
0.894118 1 0.105882 0 0.239216 1 
0 0 0.501961 0 0.227451 1 
0.87451 1 0.12549 0.792157 0 0 
0.784314 0 0 0.901961 1 0.0980392 
0 0.247059 1 0 0 0.501961 
0 0.219608 1 0.866667 1 0.133333 
0.796078 0 0 0.780392 0 0 
0.909804 1 0.0901961 0 0.290196 1 
1 0.972549 0 0.705882 0 0 
0.933333 0 0 0.529412 1 0.470588 
0 0 0.929412 0 0 0.564706 
0 0.729412 1 1 0.517647 0 
0.6 0 0 1 0.262745 0 
0.0313725 1 0.968627 0 0 0.670588 
0 0 0.752941 0.215686 1 0.784314 
1 0.129412 0 0.627451 0 0 
1 0.682353 0 0 0.27451 1 
0.984314 1 0.0156863 0.729412 0 0 
0.886275 0 0 0.635294 1 0.364706 
0 0.0117647 1 0 0 0.533333 
0 0.580392 1 1 0.682353 0 
0.627451 0 0 1 0.101961 0 
0.278431 1 0.721569 0 0 0.796078 
0 0 0.631373 0 0.909804 1 
1 0.376471 0 0.596078 0 0 
1 0.364706 0 0 0.258824 1 
0.945098 1 0.054902 0.752941 0 0 
0.843137 0 0 0.741176 1 0.258824 
0 0.101961 1 0 0 0.509804 
0 0.427451 1 1 0.858824 0 
0.682353 0 0 0.952941 0 0 
0.537255 1 0.462745 0 0 0.960784 
0 0 0.545098 0 0.607843 1 
1 0.670588 0 0.631373 0 0 
1 0.0823529 0 0 0.243137 1 
0.901961 1 0.0980392 0.780392 0 0 
0.803922 0 0 0.847059 1 0.152941 
0 0.2 1 0 0 0.501961 
0 0.286275 1 0.956863 1 0.0431373 
0.756863 0 0 0.827451 0 0 
0.792157 1 0.207843 0 0.156863 1 
0 0 0.501961 0 0.329412 1 
1 0.992157 0 0.733333 0 0 
0.854902 0 0 0 0.301961 1 
1 0.952941 0 0.694118 0 0 
0.960784 0 0 0.470588 1 0.529412 
0 0 0.886275 0 0 0.588235 
0 0.819608 1 1 0.427451 0 
0.596078 0 0 1 0.368627 0 
0 0.894118 1 0 0 0.611765 
0 0 0.843137 0.396078 1 0.603922 
1 0.00392157 0 0.670588 0 0 
0 0.286275 1 1 0.988235 0 
0.713725 0 0 0.913725 0 0 
0.572549 1 0.427451 0 0 0.960784 
0 0 0.54902 0 0.670588 1 
1 0.580392 0 0.611765 0 0 
1 0.196078 0 0.129412 1 0.870588 
0 0 0.713725 0 0 0.698039 
0.0941176 1 0.905882 1 0.223529 0 
0.607843 0 0 0 0.270588 1 
0.976471 1 0.0235294 0.733333 0 0 
0.87451 0 0 0.658824 1 0.341176 
0 0.0313725 1 0 0 0.52549 
0 0.541176 1 1 0.721569 0 
0.639216 0 0 1 0.0627451 0 
0.337255 1 0.662745 0 0 0.831373 
0 0 0.603922 0 0.839216 1 
1 0.443137 0 0.596078 0 0 
0 0.258824 1 0.94902 1 0.0509804 
0.74902 0 0 0.847059 0 0 
0.733333 1 0.266667 0 0.0941176 1 
0 0 0.513725 0 0.443137 1 
1 0.843137 0 0.67451 0 0 
0.964706 0 0 0.513725 1 0.486275 
0 0 0.945098 0 0 0.54902 
0 0.635294 1 1 0.643137 0 
0.623529 0 0 0 0.25098 1 
0.92549 1 0.0745098 0.760784 0 0 
0.827451 0 0 0.784314 1 0.215686 
0 0.141176 1 0 0 0.505882 
0 0.368627 1 1 0.933333 0 
0.709804 0 0 0.898039 0 0 
0.643137 1 0.356863 0 0.0352941 1 
0 0 0.521569 0 0.490196 1 
1 0.8 0 0.666667 0 0 
0 0.247059 1 0.913725 1 0.0862745 
0.772549 0 0 0.811765 0 0 
0.819608 1 0.180392 0 0.168627 1 
0 0 0.501961 0 0.32549 1 
1 0.992157 0 0.733333 0 0 
0.862745 0 0 0.721569 1 0.278431 
0 0.0980392 1 0 0 0.509804 
0 0.407843 1 1 0.898039 0 
0.698039 0 0 0 0.243137 1 
0.909804 1 0.0901961 0.772549 0 0 
0.807843 0 0 0.827451 1 0.172549 
0 0.180392 1 0 0 0.501961 
0 0.309804 1 0.988235 1 0.0117647 
0.741176 0 0 0.847059 0 0 
0.74902 1 0.25098 0 0.117647 1 
0 0 0.505882 0 0.376471 1 
1 0.933333 0 0.709804 0 0 
0 0.247059 1 0.913725 1 0.0862745 
0.772549 0 0 0.811765 0 0 
0.819608 1 0.180392 0 0.168627 1 
0 0 0.501961 0 0.32549 1 
1 0.992157 0 0.733333 0 0 
0.862745 0 0 0.721569 1 0.278431 
0 0.0980392 1 0 0 0.509804 
0 0.407843 1 1 0.898039 0 
0.698039 0 0 0 0.25098 1 
0.92549 1 0.0745098 0.760784 0 0 
0.827451 0 0 0.784314 1 0.215686 
0 0.141176 1 0 0 0.505882 
0 0.368627 1 1 0.933333 0 
0.709804 0 0 0.898039 0 0 
0.643137 1 0.356863 0 0.0352941 1 
0 0 0.521569 0 0.490196 1 
1 0.8 0 0.666667 0 0 
0 0.258824 1 0.94902 1 0.0509804 
0.74902 0 0 0.847059 0 0 
0.733333 1 0.266667 0 0.0941176 1 
0 0 0.513725 0 0.443137 1 
1 0.843137 0 0.67451 0 0 
0.964706 0 0 0.513725 1 0.486275 
0 0 0.945098 0 0 0.54902 
0 0.635294 1 1 0.643137 0 
0.623529 0 0 0 0.270588 1 
0.976471 1 0.0235294 0.733333 0 0 
0.87451 0 0 0.658824 1 0.341176 
0 0.0313725 1 0 0 0.52549 
0 0.541176 1 1 0.721569 0 
0.639216 0 0 1 0.0627451 0 
0.337255 1 0.662745 0 0 0.831373 
0 0 0.603922 0 0.839216 1 
1 0.443137 0 0.596078 0 0 
0 0.286275 1 1 0.988235 0 
0.713725 0 0 0.913725 0 0 
0.572549 1 0.427451 0 0 0.960784 
0 0 0.54902 0 0.670588 1 
1 0.580392 0 0.611765 0 0 
1 0.196078 0 0.129412 1 0.870588 
0 0 0.713725 0 0 0.698039 
0.0941176 1 0.905882 1 0.223529 0 
0.607843 0 0 0 0.301961 1 
1 0.952941 0 0.694118 0 0 
0.960784 0 0 0.470588 1 0.529412 
0 0 0.886275 0 0 0.588235 
0 0.819608 1 1 0.427451 0 
0.596078 0 0 1 0.368627 0 
0 0.894118 1 0 0 0.611765 
0 0 0.843137 0.396078 1 0.603922 
1 0.00392157 0 0.670588 0 0 
0 0.243137 1 0.901961 1 0.0980392 
0.780392 0 0 0.803922 0 0 
0.847059 1 0.152941 0 0.2 1 
0 0 0.501961 0 0.286275 1 
0.956863 1 0.0431373 0.756863 0 0 
0.827451 0 0 0.792157 1 0.207843 
0 0.156863 1 0 0 0.501961 
0 0.329412 1 1 0.992157 0 
0.733333 0 0 0.854902 0 0 
0 0.258824 1 0.945098 1 0.054902 
0.752941 0 0 0.843137 0 0 
0.741176 1 0.258824 0 0.101961 1 
0 0 0.509804 0 0.427451 1 
1 0.858824 0 0.682353 0 0 
0.952941 0 0 0.537255 1 0.462745 
0 0 0.960784 0 0 0.545098 
0 0.607843 1 1 0.670588 0 
0.631373 0 0 1 0.0823529 0 
0 0.27451 1 0.984314 1 0.0156863 
0.729412 0 0 0.886275 0 0 
0.635294 1 0.364706 0 0.0117647 1 
0 0 0.533333 0 0.580392 1 