# vtk DataFile Version 3.0
vtk output
ASCII
DATASET POLYDATA
POINTS 699 float
0.5 0.2 0.3 0.5 0.2 1.2 0.5 1 1.2 
0.5 1 0.3 1.2 0.2 0.3 1.2 1 0.3 
1.2 1 1.2 1.2 0.2 1.2 0.5 0.2 0.3 
0.5 0.2 0.3 0.5 0.2 1.2 0.5 0.2 1.2 
0.5 1 1.2 0.5 1 1.2 0.5 1 0.3 
0.5 1 0.3 1.2 0.2 0.3 1.2 0.2 0.3 
1.2 1 0.3 1.2 1 0.3 1.2 1 1.2 
1.2 1 1.2 1.2 0.2 1.2 1.2 0.2 1.2 
0.5 0.2 0.39 0.5 0.2 0.48 0.5 0.2 0.57 
0.5 0.2 0.66 0.5 0.2 0.75 0.5 0.2 0.84 
0.5 0.2 0.93 0.5 0.2 1.02 0.5 0.2 1.11 
0.5 0.3 1.2 0.5 0.4 1.2 0.5 0.5 1.2 
0.5 0.6 1.2 0.5 0.7 1.2 0.5 0.8 1.2 
0.5 0.9 1.2 0.5 1 1.11 0.5 1 1.02 
0.5 1 0.93 0.5 1 0.84 0.5 1 0.75 
0.5 1 0.66 0.5 1 0.57 0.5 1 0.48 
0.5 1 0.39 0.5 0.9 0.3 0.5 0.8 0.3 
0.5 0.7 0.3 0.5 0.6 0.3 0.5 0.5 0.3 
0.5 0.4 0.3 0.5 0.3 0.3 0.5 0.45 0.546111 
0.5 0.85 0.445556 0.5 0.512 0.885 0.5 0.35 1.05444 
0.5 0.7785 0.975 0.5 0.55 0.438293 0.5 0.35 0.438293 
0.5 0.330441 0.615 0.5 0.910712 0.525 0.5 0.931379 0.435 
0.5 0.933469 0.363367 0.5 0.85 0.36419 0.5 0.743856 0.404873 
0.5 0.365736 0.795 0.5 0.55 1.04418 0.5 0.268621 1.065 
0.5 0.266531 1.13663 0.5 0.2971 0.965584 0.5 0.35 1.13581 
0.5 0.452352 1.09513 0.5 0.85 1.0817 0.5 0.893821 0.975 
0.5 0.820683 0.795 0.5 0.55 0.360107 0.5 0.45 0.3992 
0.5 0.643069 0.3992 0.5 0.35 0.360107 0.5 0.274417 0.372131 
0.5 0.288507 0.525 0.5 0.257459 0.615 0.5 0.75 0.340697 
0.5 0.276759 0.795 0.5 0.29395 0.702122 0.5 0.55 1.13011 
0.5 0.661302 1.08714 0.5 0.41574 0.955132 0.5 0.45 1.15946 
0.5 0.85 1.15141 0.5 0.921093 1.11655 0.5 0.915988 0.795 
0.5 0.681033 0.619916 0.5 0.368336 0.542574 0.5 0.273626 0.449287 
0.5 0.275958 0.8816 0.5 0.351735 0.907177 0.5 0.65 1.15408 
0.5 0.75 1.11979 0.5 0.358938 0.988947 0.5 0.868336 0.671705 
0.5 0.868336 0.880497 0.5 0.788769 0.555269 0.5 0.636523 0.513949 
0.5 0.728855 1.04043 0.5 0.646475 0.926373 0.5 0.655537 1.00661 
0.5 0.709083 0.95993 0.5 0.763529 0.876549 0.5 0.868336 0.742561 
0.5 0.937648 0.705 0.5 0.929647 0.615 0.5 0.854789 0.595558 
0.5 0.836161 0.939862 0.5 0.930744 0.914355 0.5 0.843177 0.513691 
0.5 0.772892 0.478106 0.5 0.696791 0.465906 0.5 0.611752 0.454975 
0.5 0.684519 0.760371 0.5 0.746039 0.803488 0.5 0.770326 0.703388 
0.5 0.671287 0.844699 0.5 0.788218 0.630408 0.5 0.571659 0.785863 
0.5 0.699432 0.68973 0.5 0.592496 0.680579 0.5 0.836161 1.01366 
0.5 0.421075 0.472656 0.5 0.493792 0.486444 0.5 0.472674 1.01503 
0.5 0.536324 0.963317 0.5 0.928139 1.04179 0.5 0.426816 0.859586 
0.5 0.46735 0.760075 0.5 0.39351 0.69262 0.5 0.491372 0.659638 
0.5 0.409963 0.614819 0.5 0.531138 0.72224 0.5 0.560002 0.582862 
0.5 0.615197 0.618769 0.5 0.563656 0.509979 0.5 0.495155 0.593957 
0.5 0.709676 0.545553 0.5 0.591632 0.865402 0.5 0.620809 0.740887 
0.5 0.508954 0.815647 1.2 0.3 0.3 1.2 0.4 0.3 
1.2 0.5 0.3 1.2 0.6 0.3 1.2 0.7 0.3 
1.2 0.8 0.3 1.2 0.9 0.3 1.2 1 0.39 
1.2 1 0.48 1.2 1 0.57 1.2 1 0.66 
1.2 1 0.75 1.2 1 0.84 1.2 1 0.93 
1.2 1 1.02 1.2 1 1.11 1.2 0.9 1.2 
1.2 0.8 1.2 1.2 0.7 1.2 1.2 0.6 1.2 
1.2 0.5 1.2 1.2 0.4 1.2 1.2 0.3 1.2 
1.2 0.2 1.11 1.2 0.2 1.02 1.2 0.2 0.93 
1.2 0.2 0.84 1.2 0.2 0.75 1.2 0.2 0.66 
1.2 0.2 0.57 1.2 0.2 0.48 1.2 0.2 0.39 
1.2 0.4215 0.525 1.2 0.55 0.853333 1.2 0.35 1.05444 
1.2 0.75 0.546111 1.2 0.85 1.05444 1.2 0.324463 0.615 
1.2 0.324463 0.435 1.2 0.45 0.408749 1.2 0.55 1.03027 
1.2 0.376968 0.795 1.2 0.773469 0.795 1.2 0.35 1.13581 
1.2 0.274082 1.12824 1.2 0.456144 1.09513 1.2 0.289288 0.975 
1.2 0.75 0.417977 1.2 0.878159 0.525 1.2 0.910712 0.975 
1.2 0.931379 1.065 1.2 0.933469 1.13663 1.2 0.85 1.13581 
1.2 0.743856 1.09513 1.2 0.254097 0.615 1.2 0.28928 0.525 
1.2 0.254097 0.435 1.2 0.35 0.360656 1.2 0.45 0.34288 
1.2 0.55 0.388858 1.2 0.55 1.1225 1.2 0.282763 0.795 
1.2 0.28147 0.702923 1.2 0.891204 0.795 1.2 0.45 1.1593 
1.2 0.272546 1.05071 1.2 0.427946 0.931957 1.2 0.75 0.348393 
1.2 0.85 0.390774 1.2 0.947389 0.525 1.2 0.921427 0.441393 
1.2 0.776274 0.935182 1.2 0.75 1.1593 1.2 0.65 1.11748 
1.2 0.35539 0.498967 1.2 0.517529 0.486924 1.2 0.329866 0.883411 
1.2 0.37978 0.696522 1.2 0.366511 0.978907 1.2 0.441684 1.0136 
1.2 0.81723 0.467715 1.2 0.929425 0.367861 1.2 0.835895 0.980745 
1.2 0.762068 1.01556 1.2 0.860372 0.886926 1.2 0.651291 0.954538 
1.2 0.455983 0.471835 1.2 0.639866 0.473023 1.2 0.400408 0.864241 
1.2 0.471045 0.801741 1.2 0.266093 0.909941 1.2 0.413743 0.613948 
1.2 0.791755 0.864753 1.2 0.68662 0.855041 1.2 0.928574 0.858668 
1.2 0.575485 0.451705 1.2 0.641114 0.381631 1.2 0.47855 0.876465 
1.2 0.539173 0.941803 1.2 0.610742 0.674165 1.2 0.489628 0.693431 
1.2 0.600206 0.904375 1.2 0.832337 0.663898 1.2 0.713198 0.482044 
1.2 0.709824 0.919301 1.2 0.679375 0.751727 1.2 0.618889 0.80788 
1.2 0.716652 0.649594 1.2 0.750969 0.719988 1.2 0.588733 0.568299 
1.2 0.668426 0.550366 1.2 0.497406 0.576432 1.2 0.43597 0.739974 
1.2 0.832337 0.742665 1.2 0.917129 0.703282 1.2 0.912774 0.610834 
1.2 0.546869 0.759002 1.2 0.77992 0.612868 1.2 0.84598 0.587874 
1.2 0.813121 0.532217 1.2 0.653714 0.618849 1.2 0.542934 0.638217 
1.2 0.678485 1.03623 1.2 0.613052 1.05891 0.5875 0.2 0.3 
0.675 0.2 0.3 0.7625 0.2 0.3 0.85 0.2 0.3 
0.9375 0.2 0.3 1.025 0.2 0.3 1.1125 0.2 0.3 
1.2 0.2 0.39 1.2 0.2 0.48 1.2 0.2 0.57 
1.2 0.2 0.66 1.2 0.2 0.75 1.2 0.2 0.84 
1.2 0.2 0.93 1.2 0.2 1.02 1.2 0.2 1.11 
1.1125 0.2 1.2 1.025 0.2 1.2 0.9375 0.2 1.2 
0.85 0.2 1.2 0.7625 0.2 1.2 0.675 0.2 1.2 
0.5875 0.2 1.2 0.5 0.2 1.11 0.5 0.2 1.02 
0.5 0.2 0.93 0.5 0.2 0.84 0.5 0.2 0.75 
0.5 0.2 0.66 0.5 0.2 0.57 0.5 0.2 0.48 
0.5 0.2 0.39 0.71875 0.2 0.517604 0.80625 0.2 0.894861 
0.98125 0.2 0.517604 0.63125 0.2 0.421996 0.80625 0.2 0.421996 
0.80625 0.2 1.05057 0.98125 0.2 0.404404 0.63125 0.2 0.353153 
0.71875 0.2 0.387575 0.80625 0.2 0.353153 0.893322 0.2 0.38024 
0.80625 0.2 1.13169 0.98125 0.2 1.02922 0.701737 0.2 1.09113 
1.06875 0.2 1.0978 0.900001 0.2 1.09113 0.626429 0.2 0.615 
0.649978 0.2 0.885 0.993033 0.2 0.795 1.09513 0.2 0.525 
0.558555 0.2 0.435 0.610922 0.2 0.518051 0.743695 0.2 0.45259 
0.887878 0.2 0.480549 0.806586 0.2 0.514012 1.08853 0.2 0.975 
0.597542 0.2 1.065 0.63125 0.2 1.13538 1.13799 0.2 1.065 
0.983506 0.2 1.11645 0.555206 0.2 0.615 0.568238 0.2 0.885 
0.609108 0.2 0.779596 0.57757 0.2 0.6988 0.609108 0.2 0.970732 
1.10141 0.2 0.795 0.664676 0.2 0.479249 0.665007 0.2 0.559115 
0.949673 0.2 0.461004 1.15335 0.2 0.975 0.722911 0.2 0.972377 
0.662901 0.2 1.02518 1.02954 0.2 0.654501 1.04211 0.2 0.461004 
1.06875 0.2 0.376763 1.13629 0.2 0.364407 1.04988 0.2 1.03176 
0.989469 0.2 0.912226 0.734314 0.2 0.791673 0.751363 0.2 0.659985 
0.671049 0.2 0.708865 0.765369 0.2 0.581852 0.891934 0.2 0.612308 
0.867745 0.2 0.54711 0.820246 0.2 0.63201 0.886936 0.2 0.734393 
1.11767 0.2 0.886624 1.05679 0.2 0.915542 0.727849 0.2 0.894128 
0.800944 0.2 0.972714 0.894407 0.2 0.939977 0.891403 0.2 0.837158 
0.954327 0.2 0.968541 0.87672 0.2 1.01631 0.81316 0.2 0.813376 
0.793058 0.2 0.732331 0.928931 0.2 0.784047 0.966687 0.2 0.70953 
0.959392 0.2 0.63779 0.740791 0.2 1.03683 1.03465 0.2 0.575732 
1.11595 0.2 0.620562 1.10005 0.2 0.707062 1.03388 0.2 0.735615 
0.668673 0.2 0.817125 1.04722 0.2 0.843471 0.95736 0.2 0.852583 
1.02091 0.2 0.971726 1.12393 0.2 0.446572 0.5 1 0.39 
0.5 1 0.48 0.5 1 0.57 0.5 1 0.66 
0.5 1 0.75 0.5 1 0.84 0.5 1 0.93 
0.5 1 1.02 0.5 1 1.11 0.5875 1 1.2 
0.675 1 1.2 0.7625 1 1.2 0.85 1 1.2 
0.9375 1 1.2 1.025 1 1.2 1.1125 1 1.2 
1.2 1 1.11 1.2 1 1.02 1.2 1 0.93 
1.2 1 0.84 1.2 1 0.75 1.2 1 0.66 
1.2 1 0.57 1.2 1 0.48 1.2 1 0.39 
1.1125 1 0.3 1.025 1 0.3 0.9375 1 0.3 
0.85 1 0.3 0.7625 1 0.3 0.675 1 0.3 
0.5875 1 0.3 0.71875 1 0.517604 0.98125 1 0.517604 
0.71875 1 0.982396 0.98125 1 0.982396 0.80625 1 0.421996 
0.63125 1 0.421996 1.06875 1 0.421996 0.63125 1 1.078 
0.80625 1 1.078 0.98125 1 1.0956 0.80625 1 0.353153 
0.71875 1 0.387575 0.63125 1 0.353153 1.06875 1 0.353153 
0.63125 1 1.14685 0.71875 1 1.11243 0.80625 1 1.14685 
0.893322 1 1.11976 0.626429 1 0.615 1.01499 1 0.705 
0.626429 1 0.885 1.09513 1 0.975 0.558555 1 0.435 
0.610922 1 0.518051 1.10167 1 0.525 1.14145 1 0.435 
0.558555 1 1.065 0.610922 1 0.98195 0.693806 1 0.45259 
0.743695 1 1.04741 0.887878 1 1.01945 0.806586 1 0.985988 
0.555206 1 0.615 1.11297 1 0.705 0.555206 1 0.885 
0.665007 1 0.559115 0.811151 1 0.701257 0.75186 1 0.616017 
0.768443 1 0.842974 0.765276 1 0.920412 0.701889 1 0.879036 
0.672163 1 0.744731 0.706245 1 0.80763 0.770818 1 0.766396 
0.911354 1 0.80908 0.846937 1 0.768472 0.853946 1 0.885255 
0.923839 1 0.717878 0.664676 1 1.02075 0.665007 1 0.940885 
0.949673 1 1.039 1.06398 1 0.61772 1.06398 1 0.832139 
0.877349 1 0.591971 0.732245 1 0.692902 0.664101 1 0.674646 
0.58522 1 0.719226 0.575976 1 0.803157 0.911241 1 0.942156 
0.988621 1 0.888553 1.1394 1 0.615 1.03947 1 0.553734 
0.968925 1 0.617438 1.13436 1 0.795 1.06398 1 0.759131 
0.986365 1 0.780136 1.12916 1 0.885 0.819951 1 0.631895 
0.803108 1 0.543999 0.640616 1 0.819781 1.03564 1 0.939457 
0.922411 1 0.875627 0.910152 1 0.651395 0.88697 1 0.495647 
0.776117 1 0.482262 0.956771 1 0.409326 0.884571 1 0.373037 
1.04211 1 1.039 1.06875 1 1.12324 1.13629 1 1.13559 
1.00836 1 0.454569 1.12393 1 1.05343 0.5 0.3 0.3 
0.5 0.4 0.3 0.5 0.5 0.3 0.5 0.6 0.3 
0.5 0.7 0.3 0.5 0.8 0.3 0.5 0.9 0.3 
0.5875 1 0.3 0.675 1 0.3 0.7625 1 0.3 
0.85 1 0.3 0.9375 1 0.3 1.025 1 0.3 
1.1125 1 0.3 1.2 0.9 0.3 1.2 0.8 0.3 
1.2 0.7 0.3 1.2 0.6 0.3 1.2 0.5 0.3 
1.2 0.4 0.3 1.2 0.3 0.3 1.1125 0.2 0.3 
1.025 0.2 0.3 0.9375 0.2 0.3 0.85 0.2 0.3 
0.7625 0.2 0.3 0.675 0.2 0.3 0.5875 0.2 0.3 
0.71875 0.414844 0.3 0.98125 0.414844 0.3 0.71875 0.785156 0.3 
0.98125 0.785156 0.3 0.80625 0.320786 0.3 0.63125 0.320786 0.3 
1.06875 0.320786 0.3 0.63125 0.879214 0.3 0.80625 0.879214 0.3 
0.98125 0.897033 0.3 0.80625 0.252469 0.3 0.71875 0.286627 0.3 
0.63125 0.252469 0.3 1.06875 0.252469 0.3 0.63125 0.947531 0.3 
0.71875 0.913373 0.3 0.80625 0.947531 0.3 0.892997 0.919673 0.3 
0.606486 0.45 0.3 1.05459 0.55 0.3 0.606486 0.75 0.3 
1.09351 0.75 0.3 0.559353 0.35 0.3 1.14065 0.35 0.3 
0.559353 0.85 0.3 0.693359 0.350736 0.3 0.744141 0.849264 0.3 
[...]
POINT_DATA 699
NORMALS Normals float
-1 0 0 -1 0 0 -1 0 0 
-1 0 0 1 0 0 1 0 0 
1 0 0 1 0 0 0 -1 0 
0 0 -1 0 -1 0 0 0 1 
0 1 0 0 0 1 0 1 0 
0 0 -1 0 -1 0 0 0 -1 
0 1 0 0 0 -1 0 1 0 
0 0 1 0 -1 0 0 0 1 
-1 0 0 -1 0 0 -1 0 0 
-1 0 0 -1 0 0 -1 0 0 
-1 0 0 -1 0 0 -1 0 0 
-1 0 0 -1 0 0 -1 0 0 
-1 0 0 -1 0 0 -1 0 0 
-1 0 0 -1 0 0 -1 0 0 
-1 0 0 -1 0 0 -1 0 0 
-1 0 0 -1 0 0 -1 0 0 
-1 0 0 -1 0 0 -1 0 0 
-1 0 0 -1 0 0 -1 0 0 
-1 0 0 -1 0 0 -1 0 0 
-1 0 0 -1 0 0 -1 0 0 
-1 0 0 -1 0 0 -1 0 0 
-1 0 0 -1 0 0 -1 0 0 
-1 0 0 -1 0 0 -1 0 0 
-1 0 0 -1 0 0 -1 0 0 
-1 0 0 -1 0 0 -1 0 0 
-1 0 0 -1 0 0 -1 0 0 
-1 0 0 -1 0 0 -1 0 0 
-1 0 0 -1 0 0 -1 0 0 
-1 0 0 -1 0 0 -1 0 0 
-1 0 0 -1 0 0 -1 0 0 
-1 0 0 -1 0 0 -1 0 0 
-1 0 0 -1 0 0 -1 0 0 
-1 0 0 -1 0 0 -1 0 0 
-1 0 0 -1 0 0 -1 0 0 
-1 0 0 -1 0 0 -1 0 0 
-1 0 0 -1 0 0 -1 0 0 
-1 0 0 -1 0 0 -1 0 0 
-1 0 0 -1 0 0 -1 0 0 
-1 0 0 -1 0 0 -1 0 0 
-1 0 0 -1 0 0 -1 0 0 
-1 0 0 -1 0 0 -1 0 0 
-1 0 0 -1 0 0 -1 0 0 
-1 0 0 -1 0 0 -1 0 0 
-1 0 0 -1 0 0 -1 0 0 
-1 0 0 -1 0 0 -1 0 0 
-1 0 0 -1 0 0 -1 0 0 
-1 0 0 -1 0 0 -1 0 0 
-1 0 0 -1 0 0 -1 0 0 
-1 0 0 -1 0 0 -1 0 0 
-1 0 0 -1 0 0 -1 0 0 
-1 0 0 1 0 0 1 0 0 
1 0 0 1 0 0 1 0 0 
1 0 0 1 0 0 1 0 0 
1 0 0 1 0 0 1 0 0 
1 0 0 1 0 0 1 0 0 
1 0 0 1 0 0 1 0 0 
1 0 0 1 0 0 1 0 0 
1 0 0 1 0 0 1 0 0 
1 0 0 1 0 0 1 0 0 
1 0 0 1 0 0 1 0 0 
1 0 0 1 0 0 1 0 0 
1 0 0 1 0 0 1 0 0 
1 0 0 1 0 0 1 0 0 
1 0 0 1 0 0 1 0 0 
1 0 0 1 0 0 1 0 0 
1 0 0 1 0 0 1 0 0 
1 0 0 1 0 0 1 0 0 
1 0 0 1 0 0 1 0 0 
1 0 0 1 0 0 1 0 0 
1 0 0 1 0 0 1 0 0 
1 0 0 1 0 0 1 0 0 
1 0 0 1 0 0 1 0 0 
1 0 0 1 0 0 1 0 0 
1 0 0 1 0 0 1 0 0 
1 0 0 1 0 0 1 0 0 
1 0 0 1 0 0 1 0 0 
1 0 0 1 0 0 1 0 0 
1 0 0 1 0 0 1 0 0 
1 0 0 1 0 0 1 0 0 
1 0 0 1 0 0 1 0 0 
1 0 0 1 0 0 1 0 0 
1 0 0 1 0 0 1 0 0 
1 0 0 1 0 0 1 0 0 
1 0 0 1 0 0 1 0 0 
1 0 0 1 0 0 1 0 0 
1 0 0 1 0 0 1 0 0 
1 0 0 1 0 0 1 0 0 
1 0 0 1 0 0 1 0 0 
1 0 0 1 0 0 1 0 0 
1 0 0 1 0 0 1 0 0 
1 0 0 1 0 0 1 0 0 
1 0 0 1 0 0 0 -1 0 
0 -1 0 0 -1 0 0 -1 0 
0 -1 0 0 -1 0 0 -1 0 
0 -1 0 0 -1 0 0 -1 0 
0 -1 0 0 -1 0 0 -1 0 
0 -1 0 0 -1 0 0 -1 0 
0 -1 0 0 -1 0 0 -1 0 
0 -1 0 0 -1 0 0 -1 0 
0 -1 0 0 -1 0 0 -1 0 
0 -1 0 0 -1 0 0 -1 0 
0 -1 0 0 -1 0 0 -1 0 
0 -1 0 0 -1 0 0 -1 0 
0 -1 0 0 -1 0 0 -1 0 
0 -1 0 0 -1 0 0 -1 0 
0 -1 0 0 -1 0 0 -1 0 
0 -1 0 0 -1 0 0 -1 0 
0 -1 0 0 -1 0 0 -1 0 
0 -1 0 0 -1 0 0 -1 0 
0 -1 0 0 -1 0 0 -1 0 
0 -1 0 0 -1 0 0 -1 0 
0 -1 0 0 -1 0 0 -1 0 
0 -1 0 0 -1 0 0 -1 0 
0 -1 0 0 -1 0 0 -1 0 
0 -1 0 0 -1 0 0 -1 0 
0 -1 0 0 -1 0 0 -1 0 
0 -1 0 0 -1 0 0 -1 0 
0 -1 0 0 -1 0 0 -1 0 
0 -1 0 0 -1 0 0 -1 0 
0 -1 0 0 -1 0 0 -1 0 
0 -1 0 0 -1 0 0 -1 0 
0 -1 0 0 -1 0 0 -1 0 
0 -1 0 0 -1 0 0 -1 0 
0 -1 0 0 -1 0 0 -1 0 
0 -1 0 0 -1 0 0 -1 0 
0 -1 0 0 -1 0 0 -1 0 
0 -1 0 0 -1 0 0 -1 0 
0 -1 0 0 -1 0 0 -1 0 
0 -1 0 0 -1 0 0 1 0 
0 1 0 0 1 0 0 1 0 
0 1 0 0 1 0 0 1 0 
0 1 0 0 1 0 0 1 0 
0 1 0 0 1 0 0 1 0 
0 1 0 0 1 0 0 1 0 
0 1 0 0 1 0 0 1 0 
0 1 0 0 1 0 0 1 0 
0 1 0 0 1 0 0 1 0 
0 1 0 0 1 0 0 1 0 
0 1 0 0 1 0 0 1 0 
0 1 0 0 1 0 0 1 0 
0 1 0 0 1 0 0 1 0 
0 1 0 0 1 0 0 1 0 
0 1 0 0 1 0 0 1 0 
0 1 0 0 1 0 0 1 0 
0 1 0 0 1 0 0 1 0 
0 1 0 0 1 0 0 1 0 
0 1 0 0 1 0 0 1 0 
0 1 0 0 1 0 0 1 0 
0 1 0 0 1 0 0 1 0 
0 1 0 0 1 0 0 1 0 
0 1 0 0 1 0 0 1 0 
0 1 0 0 1 0 0 1 0 
0 1 0 0 1 0 0 1 0 
0 1 0 0 1 0 0 1 0 
0 1 0 0 1 0 0 1 0 
0 1 0 0 1 0 0 1 0 
0 1 0 0 1 0 0 1 0 
0 1 0 0 1 0 0 1 0 
0 1 0 0 1 0 0 1 0 
0 1 0 0 1 0 0 1 0 
0 1 0 0 1 0 0 1 0 
0 1 0 0 1 0 0 1 0 
0 1 0 0 1 0 0 1 0 
0 1 0 0 1 0 0 1 0 
0 1 0 0 1 0 0 1 0 
0 1 0 0 1 0 0 1 0 
0 1 0 0 1 0 0 0 -1 
0 0 -1 0 0 -1 0 0 -1 
0 0 -1 0 0 -1 0 0 -1 
0 0 -1 0 0 -1 0 0 -1 
0 0 -1 0 0 -1 0 0 -1 
0 0 -1 0 0 -1 0 0 -1 
0 0 -1 0 0 -1 0 0 -1 
0 0 -1 0 0 -1 0 0 -1 
0 0 -1 0 0 -1 0 0 -1 
0 0 -1 0 0 -1 0 0 -1 
0 0 -1 0 0 -1 0 0 -1 
0 0 -1 0 0 -1 0 0 -1 
0 0 -1 0 0 -1 0 0 -1 
0 0 -1 0 0 -1 0 0 -1 
0 0 -1 0 0 -1 0 0 -1 
0 0 -1 0 0 -1 0 0 -1 
0 0 -1 0 0 -1 0 0 -1 
0 0 -1 0 0 -1 0 0 -1 
0 0 -1 0 0 -1 0 0 -1 
0 0 -1 0 0 -1 0 0 -1 
0 0 -1 0 0 -1 0 0 -1 
0 0 -1 0 0 -1 0 0 -1 
0 0 -1 0 0 -1 0 0 -1 
0 0 -1 0 0 -1 0 0 -1 
0 0 -1 0 0 -1 0 0 -1 
0 0 -1 0 0 -1 0 0 -1 
0 0 -1 0 0 -1 0 0 -1 
0 0 -1 0 0 -1 0 0 -1 
0 0 -1 0 0 -1 0 0 -1 
0 0 -1 0 0 -1 0 0 -1 
0 0 -1 0 0 -1 0 0 -1 
0 0 -1 0 0 -1 0 0 -1 
0 0 -1 0 0 -1 0 0 -1 
0 0 -1 0 0 1 0 0 1 
0 0 1 0 0 1 0 0 1 
0 0 1 0 0 1 0 0 1 
0 0 1 0 0 1 0 0 1 
0 0 1 0 0 1 0 0 1 
0 0 1 0 0 1 0 0 1 
0 0 1 0 0 1 0 0 1 
0 0 1 0 0 1 0 0 1 
0 0 1 0 0 1 0 0 1 
0 0 1 0 0 1 0 0 1 
0 0 1 0 0 1 0 0 1 
0 0 1 0 0 1 0 0 1 
0 0 1 0 0 1 0 0 1 
0 0 1 0 0 1 0 0 1 
0 0 1 0 0 1 0 0 1 
0 0 1 0 0 1 0 0 1 
0 0 1 0 0 1 0 0 1 
0 0 1 0 0 1 0 0 1 
0 0 1 0 0 1 0 0 1 
0 0 1 0 0 1 0 0 1 
0 0 1 0 0 1 0 0 1 
0 0 1 0 0 1 0 0 1 
0 0 1 0 0 1 0 0 1 
0 0 1 0 0 1 0 0 1 
0 0 1 0 0 1 0 0 1 
0 0 1 0 0 1 0 0 1 
0 0 1 0 0 1 0 0 1 
0 0 1 0 0 1 0 0 1 
0 0 1 0 0 1 0 0 1 
0 0 1 0 0 1 0 0 1 
0 0 1 0 0 1 0 0 1 
0 0 1 0 0 1 0 0 1 
0 0 1 0 0 1 0 0 1 
0 0 1 0 0 1 0 0 1 

FIELD FieldData 1
Colors 3 699 unsigned_char
163 147 131 211 195 180 117 104 96 
189 170 153 142 130 118 120 106 95 
138 124 111 141 125 110 163 147 131 
163 147 131 211 195 180 211 195 180 
117 104 96 117 104 96 189 170 153 
189 170 153 142 130 118 142 130 118 
120 106 95 120 106 95 138 124 111 
138 124 111 141 125 110 141 125 110 
187 171 156 190 174 159 131 114 107 
184 168 155 164 154 145 138 124 111 
188 172 157 214 201 185 167 155 139 
192 176 161 124 111 102 186 173 157 
174 165 150 163 146 138 174 156 146 
161 144 134 132 115 105 140 122 108 
152 132 121 177 164 155 188 174 161 
168 154 145 165 151 138 179 166 160 
121 108 102 154 136 122 206 187 170 
132 113 98 149 135 122 137 123 110 
195 182 166 188 173 154 141 124 108 
173 160 143 102 87 80 116 103 94 
197 178 164 164 148 133 191 173 161 
162 143 126 133 115 105 160 142 130 
194 173 156 187 168 153 157 141 126 
149 140 125 183 172 154 179 163 148 
148 135 119 155 139 124 164 151 135 
115 102 93 187 168 153 124 108 93 
169 153 140 162 145 129 163 145 131 
202 185 167 149 133 118 129 113 100 
190 173 155 178 159 144 171 153 133 
194 182 168 117 105 93 154 144 134 
209 198 180 156 143 134 111 98 90 
131 117 108 168 153 146 170 153 143 
205 189 173 167 150 134 182 164 152 
182 166 151 171 152 137 162 150 138 
134 120 111 154 141 132 129 115 104 
141 121 110 189 171 157 183 170 154 
116 100 84 191 179 165 159 147 131 
174 158 143 162 149 133 163 146 136 
160 143 133 190 173 165 156 142 131 
181 161 150 165 149 134 166 150 134 
147 130 114 192 176 161 178 165 149 
123 109 96 188 174 161 137 121 106 
150 140 128 196 178 166 203 191 179 
164 148 133 201 189 175 148 129 115 
155 137 123 172 156 141 147 135 121 
160 146 133 118 102 87 121 108 100 
127 115 101 199 191 180 156 144 128 
127 114 106 174 162 148 198 185 169 
212 199 182 204 188 173 196 183 167 
180 162 148 155 143 131 161 152 137 
126 114 102 169 151 137 82 73 58 
114 97 87 127 107 100 155 141 132 
167 153 144 162 148 139 143 141 146 
158 144 133 164 148 133 193 177 162 
163 151 137 162 149 133 155 142 126 
152 136 121 125 109 96 154 140 129 
174 157 139 138 116 92 166 155 137 
140 128 114 70 57 48 112 96 81 
122 102 91 164 149 130 155 144 126 
123 110 101 131 121 112 137 130 124 
152 135 127 145 129 114 125 110 105 
175 163 151 129 120 103 145 132 116 
100 83 89 137 121 105 182 170 154 
147 147 155 173 174 192 158 146 130 
157 147 135 162 154 143 183 167 152 
172 156 141 139 126 110 145 132 116 
138 140 139 171 155 140 113 104 89 
113 96 80 140 126 113 154 136 124 
119 107 91 186 173 156 134 121 112 
134 135 139 144 130 119 102 90 78 
210 193 186 169 156 147 173 161 147 
151 135 119 157 149 138 76 66 56 
153 140 124 141 128 112 123 109 100 
179 165 156 185 169 154 114 110 111 
159 152 136 147 130 110 164 151 134 
115 105 96 138 128 118 191 179 163 
162 150 134 160 147 131 128 115 99 
140 133 125 95 81 72 172 163 148 
91 78 62 152 144 131 102 95 79 
105 99 99 119 115 106 144 134 122 
153 145 134 170 157 140 163 153 143 
131 123 112 134 125 118 188 178 166 
109 108 106 124 113 107 135 123 109 
124 115 100 169 159 149 161 152 135 
113 106 88 159 146 129 114 107 99 
69 62 52 156 148 137 150 144 132 
146 136 126 166 156 146 200 191 182 
135 124 128 121 109 93 180 171 156 
198 188 176 186 174 160 161 148 132 
157 150 134 171 159 143 179 166 150 
164 151 134 192 187 181 179 167 153 
139 127 111 131 119 103 167 150 134 
157 141 126 196 180 165 168 150 136 
157 139 127 156 142 129 144 130 119 
125 110 105 145 129 114 152 135 127 
137 130 124 131 121 112 123 110 101 
155 144 126 164 149 130 122 102 91 
184 166 152 155 139 124 152 136 120 
151 138 129 122 108 107 145 133 121 
175 162 145 167 155 139 214 201 185 
188 172 157 138 124 111 164 154 145 
184 168 155 131 114 107 190 174 159 
187 171 156 150 133 117 143 126 116 
178 161 143 197 178 161 189 170 156 
149 135 124 154 137 121 166 150 135 
174 157 141 165 146 132 157 138 124 
148 135 116 186 168 156 151 135 120 
155 137 125 154 136 126 128 112 97 
138 126 112 152 139 130 186 168 156 
151 136 117 165 149 133 150 131 114 
163 144 130 166 147 133 153 135 123 
134 122 106 130 113 103 146 130 117 
164 146 134 87 68 54 189 173 158 
159 146 137 176 163 154 204 188 173 
143 130 121 170 151 134 141 127 114 
117 98 81 185 169 156 140 127 118 
101 87 74 178 161 151 173 154 137 
185 167 155 160 142 130 145 127 115 
167 149 137 143 129 118 160 143 125 
139 129 119 186 170 155 163 146 128 
156 137 123 135 118 100 190 173 157 
148 136 122 196 180 167 177 163 154 
123 108 101 144 126 112 167 149 137 
142 124 112 148 129 122 191 173 161 
158 141 125 159 147 135 177 163 152 
159 143 128 143 129 116 133 120 104 
143 131 117 149 136 128 174 160 151 
186 174 162 171 158 150 164 151 142 
131 113 101 150 133 117 121 108 102 
179 166 160 165 151 138 168 154 145 
188 174 161 177 164 155 152 132 121 
140 122 108 132 115 105 117 104 95 
128 116 104 121 108 100 106 93 85 
168 152 139 107 91 78 142 128 115 
125 109 96 152 136 121 155 142 126 
162 149 133 163 151 137 193 177 162 
164 148 133 158 144 133 143 141 146 
125 125 125 131 121 109 145 144 139 
151 139 139 190 177 161 157 141 126 
199 182 162 159 145 144 163 147 134 
149 132 112 141 120 103 166 152 141 
176 163 154 140 135 129 145 127 113 
140 124 111 156 135 118 133 126 118 
129 112 102 117 110 100 146 143 138 
111 97 84 163 147 131 120 110 100 
90 83 67 168 155 139 175 160 141 
150 137 121 128 106 93 163 149 146 
150 137 128 169 148 145 150 145 142 
136 118 106 209 192 176 143 131 117 
198 181 165 160 142 128 146 130 117 
183 169 156 204 188 172 160 146 133 
159 145 132 161 149 135 186 173 156 
193 179 168 167 151 138 132 119 103 
187 174 157 178 165 146 181 169 153 
159 146 129 193 181 165 133 117 104 
187 174 157 110 93 77 138 119 104 
142 123 108 198 182 167 151 136 117 
160 146 133 192 179 160 189 176 159 
177 164 148 198 185 169 164 146 132 
140 124 108 205 189 174 178 165 149 
177 164 147 192 180 166 188 175 158 
181 166 147 153 137 121 182 168 155 
168 154 145 164 155 140 154 137 121 
167 151 136 162 149 132 157 143 132 
132 118 107 175 168 162 191 186 182 
111 92 78 150 134 121 172 156 143 
161 152 145 114 96 82 188 173 154 
195 182 166 137 123 110 149 135 122 
132 113 98 206 187 170 154 136 122 
199 182 162 157 141 126 190 177 161 
151 139 139 145 144 139 131 121 109 
125 125 125 162 148 139 167 153 144 
155 141 132 127 107 100 114 97 87 
82 73 58 169 151 137 144 130 119 
156 142 129 157 139 127 168 150 136 
196 180 165 157 141 126 167 150 134 
122 103 88 144 125 111 142 124 110 
136 119 109 157 138 121 161 143 129 
114 100 89 154 137 119 183 169 160 
147 137 127 145 128 112 159 141 127 
176 160 145 156 142 131 92 74 60 
167 150 134 138 129 122 222 215 209 
136 119 101 147 130 112 117 107 97 
150 137 128 194 177 159 141 127 116 
187 170 154 153 134 120 161 144 126 
140 123 113 191 175 160 205 189 173 
139 116 102 115 97 85 207 189 177 
169 154 133 127 114 108 154 142 126 
185 173 159 148 135 126 141 128 119 
149 133 120 153 136 120 79 62 52 
125 111 102 176 160 147 134 119 112 
152 133 119 167 148 134 147 128 114 
151 133 123 143 125 115 166 152 143 
173 156 138 173 157 141 161 145 132 
188 172 156 206 190 177 188 169 155 
179 160 143 192 175 157 177 159 147 
101 83 71 112 98 87 121 102 88 
122 111 93 135 119 104 183 164 150 
109 87 76 115 90 83 152 135 119 
139 122 102 175 162 145 145 133 121 
122 108 107 151 138 129 152 136 120 
155 139 124 184 166 152 112 96 81 
70 57 48 140 128 114 166 155 137 
138 116 92 174 157 139 154 140 129 
142 128 115 107 91 78 168 152 139 
106 93 85 121 108 100 128 116 104 
117 104 95 161 144 134 174 156 146 
163 146 138 174 165 150 186 173 157 
124 111 102 192 176 161 165 159 147 
120 102 92 170 153 137 136 129 123 
107 98 93 164 148 133 168 151 133 
89 73 60 154 141 135 122 108 97 
138 124 111 166 150 134 98 84 73 
104 91 82 164 151 135 162 147 128 
119 107 91 207 194 178 132 116 101 
152 133 119 136 123 115 155 137 123 
145 129 114 140 126 123 112 98 87 
182 169 153 154 138 122 169 152 136 
174 158 143 174 160 147 191 177 166 
83 79 76 138 124 111 85 75 65 
137 127 115 155 140 133 139 123 110 
175 162 146 124 108 95 169 152 136 
104 88 75 121 104 94 172 150 129 
187 171 156 160 148 132 172 155 145 
149 137 123 142 130 118 180 164 151 
191 173 159 155 139 123 181 169 153 
170 158 146 175 163 151 173 159 146 
132 119 103 146 130 115 124 108 95 
138 121 105 98 85 76 162 154 151 
88 80 67 164 150 139 145 136 129 
142 137 133 166 154 140 120 108 96 
153 140 131 186 173 156 138 122 106 
58 48 38 120 110 98 66 58 55 

