# vtk DataFile Version 3.0
vtk output
ASCII
DATASET POLYDATA
POINTS 1455 float
-0.06 -0.0362132 0.015 -0.06 -0.0783738 0.015 -0.06 -0.0751646 0.0311342 
-0.06 -0.120534 0.015 -0.06 -0.114116 0.0472684 -0.06 -0.162695 0.015 
-0.06 -0.153067 0.0634025 -0.06 -0.238993 0.0553355 -0.06 -0.183775 0.0443521 
-0.06 -0.204855 0.015 -0.06 -0.247016 0.015 -0.06 -0.192019 0.0795367 
-0.06 -0.23097 0.0956709 -0.06 -0.0473554 0.0473554 -0.06 -0.015 0.015 
-0.06 -0.203874 0.136224 -0.06 -0.158666 0.104971 -0.06 -0.0797108 0.0797108 
-0.06 -0.123378 0.0799927 -0.06 -0.112066 0.112066 -0.06 -0.144422 0.144422 
-0.06 -0.176777 0.176777 -0.06 -0.136224 0.203874 -0.06 -0.0956709 0.23097 
-0.06 -0.0795367 0.192019 -0.06 -0.0634025 0.153067 -0.06 -0.104971 0.158666 
-0.06 -0.0799927 0.123378 -0.06 -0.0311342 0.0751646 -0.06 -0.015 0.0362132 
-0.06 -0.0472684 0.114116 -0.06 -0.015 0.0783738 -0.06 -0.015 0.120534 
-0.06 -0.015 0.162695 -0.06 -0.0443521 0.183775 -0.06 -0.015 0.204855 
-0.06 -0.0553355 0.238993 -0.06 -0.015 0.247016 -0.06 0.015 0.0362132 
-0.06 0.015 0.0783738 -0.06 0.0311342 0.0751646 -0.06 0.015 0.120534 
-0.06 0.0472684 0.114116 -0.06 0.015 0.162695 -0.06 0.0634025 0.153067 
-0.06 0.0553355 0.238993 -0.06 0.0443521 0.183775 -0.06 0.015 0.204855 
-0.06 0.015 0.247016 -0.06 0.0795367 0.192019 -0.06 0.0956709 0.23097 
-0.06 0.0473554 0.0473554 -0.06 0.015 0.015 -0.06 0.136224 0.203874 
-0.06 0.104971 0.158666 -0.06 0.0797108 0.0797108 -0.06 0.0799927 0.123378 
-0.06 0.112066 0.112066 -0.06 0.144422 0.144422 -0.06 0.176777 0.176777 
-0.06 0.203874 0.136224 -0.06 0.23097 0.0956709 -0.06 0.192019 0.0795367 
-0.06 0.153067 0.0634025 -0.06 0.158666 0.104971 -0.06 0.123378 0.0799927 
-0.06 0.0751646 0.0311342 -0.06 0.0362132 0.015 -0.06 0.114116 0.0472684 
-0.06 0.0783738 0.015 -0.06 0.120534 0.015 -0.06 0.162695 0.015 
-0.06 0.183775 0.0443521 -0.06 0.204855 0.015 -0.06 0.238993 0.0553355 
-0.06 0.247016 0.015 -0.06 -2.4493e-17 0.2 -0.06 -1.83697e-17 0.15 
-0.06 -0.015 0.198508 -0.06 -3.06162e-17 0.25 -0.06 -0.015 0.15 
-0.06 0.015 0.198508 -0.06 0.015 0.15 -0.06 -0.015 -0.0362132 
-0.06 -0.015 -0.0783738 -0.06 -0.0311342 -0.0751646 -0.06 -0.015 -0.120534 
-0.06 -0.0472684 -0.114116 -0.06 -0.015 -0.162695 -0.06 -0.0634025 -0.153067 
-0.06 -0.0553355 -0.238993 -0.06 -0.0443521 -0.183775 -0.06 -0.015 -0.204855 
-0.06 -0.015 -0.247016 -0.06 -0.0795367 -0.192019 -0.06 -0.0956709 -0.23097 
-0.06 -0.0473554 -0.0473554 -0.06 -0.015 -0.015 -0.06 -0.136224 -0.203874 
-0.06 -0.104971 -0.158666 -0.06 -0.0797108 -0.0797108 -0.06 -0.0799927 -0.123378 
-0.06 -0.112066 -0.112066 -0.06 -0.144422 -0.144422 -0.06 -0.176777 -0.176777 
-0.06 -0.203874 -0.136224 -0.06 -0.23097 -0.0956709 -0.06 -0.192019 -0.0795367 
-0.06 -0.153067 -0.0634025 -0.06 -0.158666 -0.104971 -0.06 -0.123378 -0.0799927 
-0.06 -0.0751646 -0.0311342 -0.06 -0.0362132 -0.015 -0.06 -0.114116 -0.0472684 
-0.06 -0.0783738 -0.015 -0.06 -0.120534 -0.015 -0.06 -0.162695 -0.015 
-0.06 -0.183775 -0.0443521 -0.06 -0.204855 -0.015 -0.06 -0.238993 -0.0553355 
-0.06 -0.247016 -0.015 -0.06 0.0362132 -0.015 -0.06 0.0783738 -0.015 
-0.06 0.0751646 -0.0311342 -0.06 0.120534 -0.015 -0.06 0.114116 -0.0472684 
-0.06 0.162695 -0.015 -0.06 0.153067 -0.0634025 -0.06 0.238993 -0.0553355 
-0.06 0.183775 -0.0443521 -0.06 0.204855 -0.015 -0.06 0.247016 -0.015 
-0.06 0.192019 -0.0795367 -0.06 0.23097 -0.0956709 -0.06 0.0473554 -0.0473554 
-0.06 0.015 -0.015 -0.06 0.203874 -0.136224 -0.06 0.158666 -0.104971 
-0.06 0.0797108 -0.0797108 -0.06 0.123378 -0.0799927 -0.06 0.112066 -0.112066 
-0.06 0.144422 -0.144422 -0.06 0.176777 -0.176777 -0.06 0.136224 -0.203874 
-0.06 0.0956709 -0.23097 -0.06 0.0795367 -0.192019 -0.06 0.0634025 -0.153067 
-0.06 0.104971 -0.158666 -0.06 0.0799927 -0.123378 -0.06 0.0311342 -0.0751646 
-0.06 0.015 -0.0362132 -0.06 0.0472684 -0.114116 -0.06 0.015 -0.0783738 
-0.06 0.015 -0.120534 -0.06 0.015 -0.162695 -0.06 0.0443521 -0.183775 
-0.06 0.015 -0.204855 -0.06 0.0553355 -0.238993 -0.06 0.015 -0.247016 
-0.06 -0.015 -0.198508 -0.06 -0.015 -0.15 -0.06 0 -0.15 
-0.06 0 -0.2 -0.06 0 -0.25 -0.06 0.015 -0.198508 
-0.06 0.015 -0.15 -0.06 -0.2 -1.22465e-17 -0.06 -0.15 -9.18485e-18 
-0.06 -0.198508 -0.015 -0.06 -0.25 -1.53081e-17 -0.06 -0.15 -0.015 
-0.06 -0.198508 0.015 -0.06 -0.15 0.015 -0.06 0.2 3.67395e-17 
-0.06 0.15 2.75546e-17 -0.06 0.198508 0.015 -0.06 0.25 4.59243e-17 
-0.06 0.15 0.015 -0.06 0.198508 -0.015 -0.06 0.15 -0.015 
-0.03 -0.015 -0.015 -0.03 -0.06 -0.015 -0.03 -0.06 0.015 
-0.03 -0.015 0.015 -0.03 -0.105 -0.015 -0.03 -0.15 -0.015 
-0.03 -0.15 0.015 -0.03 -0.105 0.015 -0.03 -0.015 -0.0985226 
-0.03 -0.015 -0.0488181 -0.03 0.015 -0.0595642 -0.03 -0.015 0.00088644 
-0.03 0.015 -0.0176513 -0.03 0.015 -0.101477 -0.03 0.015 0.0242615 
-0.03 -0.015 0.050591 -0.03 -0.015 0.100295 -0.03 0.015 0.0661743 
-0.03 -0.015 0.15 -0.03 0.015 0.108087 -0.03 0.015 0.15 
-0.03 -0.015 -0.124261 -0.03 0.015 -0.15 -0.03 -0.015 -0.15 
-0.03 0.105 0.015 -0.03 0.15 0.015 -0.03 0.15 -0.015 
-0.03 0.015 0.015 -0.03 0.06 0.015 -0.03 0.06 -0.015 
-0.03 0.105 -0.015 -0.03 0.015 -0.015 -0.045 -0.015 -0.22023 
-0.045 -0.0854205 -0.206223 -0.03 -0.045085 -0.18746 -0.03 -0.07517 -0.181476 
-0.03 -0.015 -0.193445 -0.03 0 -0.196429 -0.045 0 -0.223215 
-0.06 -0.06 0.015 -0.06 -0.105 0.015 -0.06 -0.015 0.06 
-0.03 -0.015 0.06 -0.06 -0.015 0.105 -0.03 -0.015 0.105 
-0.06 -0.015 -0.124261 -0.06 -0.015 -0.0985226 -0.06 -0.015 -0.0567613 
-0.03 -0.015 -0.0567613 -0.06 0.06 0.015 -0.06 0.105 0.015 
-0.03 0.015 0.06 -0.06 0.015 0.06 -0.03 0.015 0.105 
-0.06 0.015 0.105 -0.06 0.015 -0.101477 -0.03 0.015 -0.0582385 
-0.06 0.015 -0.0582385 -0.06 0.06 -0.015 -0.06 0.105 -0.015 
-0.045 -2.73359e-17 0.223215 -0.045 -0.015 0.22023 -0.03 -0.015 0.193445 
-0.03 -2.40556e-17 0.196429 -0.03 0.015 0.193445 -0.045 0.015 0.22023 
-0.045 0.015 -0.22023 -0.03 0.015 -0.193445 -0.06 0.195386 -0.148927 
-0.06 0.213994 -0.121077 -0.045 0.184349 -0.118157 -0.045 0.157836 -0.157836 
-0.03 0.154704 -0.115237 -0.03 0.138896 -0.138896 -0.045 0.206223 -0.0854205 
-0.03 0.181476 -0.07517 -0.045 0.130995 -0.175771 -0.045 0.0854205 -0.206223 
-0.03 0.107033 -0.160186 -0.03 0.07517 -0.181476 -0.03 0.045085 -0.18746 
-0.045 0.0854205 0.206223 -0.03 0.045085 0.18746 -0.03 0.07517 0.181476 
-0.045 0.112262 0.188289 -0.045 0.157836 0.157836 -0.03 0.107033 0.160186 
-0.03 0.138896 0.138896 -0.045 0.175771 0.130995 -0.045 0.206223 0.0854205 
-0.03 0.160186 0.107033 -0.03 0.181476 0.07517 -0.03 0.18746 0.045085 
-0.045 0.22023 0.015 -0.03 0.193445 0.015 -0.045 0.223215 4.10038e-17 
-0.03 0.196429 3.60833e-17 -0.045 0.22023 -0.015 -0.03 0.18746 -0.045085 
-0.03 0.193445 -0.015 -0.045 -0.112262 -0.188289 -0.045 -0.157836 -0.157836 
-0.03 -0.107033 -0.160186 -0.03 -0.138896 -0.138896 -0.06 -0.105 -0.015 
-0.06 -0.06 -0.015 -0.0445242 -0.187297 -0.112246 -0.03 -0.157699 -0.110756 
-0.03 -0.176501 -0.0826162 -0.0382239 -0.195044 -0.0807898 -0.03 -0.181476 -0.07517 
-0.06 -0.234707 -0.0768834 -0.045 -0.22023 -0.015 -0.06 -0.240862 -0.0459417 
-0.03 -0.18746 -0.045085 -0.03 -0.193445 -0.015 -0.045 -0.223215 -1.3668e-17 
-0.03 -0.196429 -1.20278e-17 -0.045 -0.22023 0.015 -0.045 -0.206223 0.0854205 
-0.03 -0.18746 0.045085 -0.03 -0.181476 0.07517 -0.03 -0.193445 0.015 
-0.045 -0.188289 0.112262 -0.045 -0.157836 0.157836 -0.03 -0.160186 0.107033 
-0.03 -0.138896 0.138896 -0.045 -0.130995 0.175771 -0.045 -0.0854205 0.206223 
-0.03 -0.107033 0.160186 -0.03 -0.07517 0.181476 -0.03 -0.045085 0.18746 
0.024 0 -0.1 0.0728 0 -0.1 0.0717578 -0.019509 -0.0980785 
0.1216 0 -0.1 0.1704 0 -0.1 0.169467 -0.019509 -0.0980785 
0.2192 0 -0.1 0.218322 -0.019509 -0.0980785 0.120613 -0.019509 -0.0980785 
0.268 0 -0.1 0.3168 0 -0.1 0.316032 -0.019509 -0.0980785 
0.3656 0 -0.1 0.4144 0 -0.1 0.413742 -0.019509 -0.0980785 
0.4632 0 -0.1 0.462597 -0.019509 -0.0980785 0.364887 -0.019509 -0.0980785 
0.267177 -0.019509 -0.0980785 0.0229029 -0.019509 -0.0980785 0.511451 -0.019509 -0.0980785 
0.512 0 -0.1 0.5608 0 -0.1 0.560306 -0.019509 -0.0980785 
0.6096 0 -0.1 0.6584 0 -0.1 0.658016 -0.019509 -0.0980785 
0.7072 0 -0.1 0.706871 -0.019509 -0.0980785 0.609161 -0.019509 -0.0980785 
0.756 0 -0.1 0.8048 0 -0.1 0.804581 -0.019509 -0.0980785 
0.8536 0 -0.1 0.9024 0 -0.1 0.90229 -0.019509 -0.0980785 
0.9512 0 -0.1 0.951145 -0.019509 -0.0980785 0.853435 -0.019509 -0.0980785 
0.755726 -0.019509 -0.0980785 1 -0.019509 -0.0980785 1 0 -0.1 
-0.015 0 -0.169643 -0.03 -0.037585 -0.188953 -0.015 -0.0649196 -0.156729 
0 -0.0273346 -0.13742 0 -0.0546691 -0.131983 0 0 -0.142857 
0.0217619 -0.0397977 -0.0960803 -0.015 -0.119956 -0.119956 0 -0.077842 -0.116499 
0 -0.101015 -0.101015 0.0148333 -0.0654158 -0.0935571 0.0079048 -0.0910339 -0.0910339 
-0.015 -0.142679 -0.0859473 0 -0.108858 -0.0892785 -0.00784826 0.110925 -0.110925 
-0.015 0.0649196 -0.156729 0 0.0893624 -0.108801 0 0.0546691 -0.131983 
0.016808 0.0431831 -0.104253 -0.03 0.037585 -0.188953 0 0.0273346 -0.13742 
0.024 -0.0382683 -0.092388 1 0 0 1 -0.0097545 -0.0490392 
1 0 -0.0333333 1 0 -0.0666667 1 -0.0127561 -0.030796 
1 -0.0255122 -0.061592 1 -0.0382683 -0.092388 1 -0.018519 -0.0277157 
1 -0.037038 -0.0554313 1 -0.055557 -0.083147 1 -0.0235702 -0.0235702 
1 -0.0471405 -0.0471405 1 -0.0707107 -0.0707107 1 -0.0277157 -0.018519 
1 -0.0554313 -0.037038 1 -0.083147 -0.055557 1 -0.030796 -0.0127561 
1 -0.061592 -0.0255122 1 -0.092388 -0.0382683 1 -0.0490392 -0.0097545 
1 -0.0980785 -0.019509 1 -0.0333333 -2.04108e-18 1 -0.0666667 -4.08215e-18 
1 -0.1 -6.12323e-18 1 -0.0490392 0.0097545 1 -0.0980785 0.019509 
1 -0.030796 0.0127561 1 -0.061592 0.0255122 1 -0.092388 0.0382683 
1 -0.0277157 0.018519 1 -0.0554313 0.037038 1 -0.083147 0.055557 
1 -0.0235702 0.0235702 1 -0.0471405 0.0471405 1 -0.0707107 0.0707107 
1 -0.018519 0.0277157 1 -0.037038 0.0554313 1 -0.055557 0.083147 
1 -0.0127561 0.030796 1 -0.0255122 0.061592 1 -0.0382683 0.092388 
1 -0.0097545 0.0490392 1 -0.019509 0.0980785 1 -4.08217e-18 0.0333333 
[...]
POINT_DATA 1455
COLOR_SCALARS Colors 3
0.737255 1 0.262745 0 0.780392 1 0 0.756863 1 
0 0.823529 1 0 0.858824 1 
0.764706 1 0.235294 0.811765 1 0.188235 
0.552941 1 0.447059 1 0.85098 0 
1 0.835294 0 0.505882 1 0.494118 
1 0.847059 0 0.45098 1 0.54902 
0.0235294 1 0.976471 1 0.870588 0 
0.552941 1 0.447059 1 0.843137 0 
0 0.705882 1 0.380392 1 0.619608 
0.654902 1 0.345098 1 0.831373 0 
0.45098 1 0.54902 0.552941 1 0.447059 
0.45098 1 0.54902 1 0.847059 0 
0.811765 1 0.188235 1 0.843137 0 
0.380392 1 0.619608 0 0.756863 1 
0.737255 1 0.262745 0 0.858824 1 
0 0.780392 1 0 0.823529 1 
0.764706 1 0.235294 1 0.85098 0 
1 0.835294 0 0.552941 1 0.447059 
0.505882 1 0.494118 0.737255 1 0.262745 
0 0.780392 1 0 0.756863 1 
0 0.823529 1 0 0.858824 1 
0.764706 1 0.235294 0.811765 1 0.188235 
0.552941 1 0.447059 1 0.85098 0 
1 0.835294 0 0.505882 1 0.494118 
1 0.847059 0 0.45098 1 0.54902 
0.0235294 1 0.976471 1 0.870588 0 
0.552941 1 0.447059 1 0.843137 0 
0 0.705882 1 0.380392 1 0.619608 
0.654902 1 0.345098 1 0.831373 0 
0.45098 1 0.54902 0.552941 1 0.447059 
0.45098 1 0.54902 1 0.847059 0 
0.811765 1 0.188235 1 0.843137 0 
0.380392 1 0.619608 0 0.756863 1 
0.737255 1 0.262745 0 0.858824 1 
0 0.780392 1 0 0.823529 1 
0.764706 1 0.235294 1 0.85098 0 
1 0.835294 0 0.552941 1 0.447059 
0.505882 1 0.494118 1 0.819608 0 
0.45098 1 0.54902 1 0.819608 0 
0.45098 1 0.54902 0.470588 1 0.529412 
1 0.819608 0 0.470588 1 0.529412 
0.737255 1 0.262745 0 0.780392 1 
0 0.756863 1 0 0.823529 1 
0 0.858824 1 0.764706 1 0.235294 
0.811765 1 0.188235 0.552941 1 0.447059 
1 0.85098 0 1 0.835294 0 
0.505882 1 0.494118 1 0.847059 0 
0.45098 1 0.54902 0.0235294 1 0.976471 
1 0.870588 0 0.552941 1 0.447059 
1 0.843137 0 0 0.705882 1 
0.380392 1 0.619608 0.654902 1 0.345098 
1 0.831373 0 0.45098 1 0.54902 
0.552941 1 0.447059 0.45098 1 0.54902 
1 0.847059 0 0.811765 1 0.188235 
1 0.843137 0 0.380392 1 0.619608 
0 0.756863 1 0.737255 1 0.262745 
0 0.858824 1 0 0.780392 1 
0 0.823529 1 0.764706 1 0.235294 
1 0.85098 0 1 0.835294 0 
0.552941 1 0.447059 0.505882 1 0.494118 
0.737255 1 0.262745 0 0.780392 1 
0 0.756863 1 0 0.823529 1 
0 0.858824 1 0.764706 1 0.235294 
0.811765 1 0.188235 0.552941 1 0.447059 
1 0.85098 0 1 0.835294 0 
0.505882 1 0.494118 1 0.847059 0 
0.45098 1 0.54902 0.0235294 1 0.976471 
1 0.870588 0 0.552941 1 0.447059 
1 0.843137 0 0 0.705882 1 
0.380392 1 0.619608 0.654902 1 0.345098 
1 0.831373 0 0.45098 1 0.54902 
0.552941 1 0.447059 0.45098 1 0.54902 
1 0.847059 0 0.811765 1 0.188235 
1 0.843137 0 0.380392 1 0.619608 
0 0.756863 1 0.737255 1 0.262745 
0 0.858824 1 0 0.780392 1 
0 0.823529 1 0.764706 1 0.235294 
1 0.85098 0 1 0.835294 0 
0.552941 1 0.447059 0.505882 1 0.494118 
1 0.819608 0 0.470588 1 0.529412 
0.45098 1 0.54902 1 0.819608 0 
0.45098 1 0.54902 1 0.819608 0 
0.470588 1 0.529412 1 0.819608 0 
0.45098 1 0.54902 1 0.819608 0 
0.45098 1 0.54902 0.470588 1 0.529412 
1 0.819608 0 0.470588 1 0.529412 
1 0.819608 0 0.45098 1 0.54902 
1 0.819608 0 0.45098 1 0.54902 
0.470588 1 0.529412 1 0.819608 0 
0.470588 1 0.529412 1 0.207843 0 
0 0.843137 1 0 0.843137 1 
1 0.207843 0 0 0 0.858824 
0.490196 1 0.509804 0.490196 1 0.509804 
0 0 0.858824 0 0 0.823529 
0.396078 1 0.603922 0 0.862745 1 
1 0.027451 0 1 0.27451 0 
0 0 0.831373 1 0.482353 0 
0.305882 1 0.694118 0 0 0.827451 
0 0.564706 1 0.490196 1 0.509804 
0 0 0.901961 0.490196 1 0.509804 
0 0.333333 1 0.490196 1 0.509804 
0.490196 1 0.509804 0 0 0.858824 
0.490196 1 0.509804 0.490196 1 0.509804 
1 0.207843 0 0 0.843137 1 
0 0.843137 1 0 0 0.858824 
1 0.207843 0 1 0.67451 0 
1 0.733333 0 1 0.12549 0 
1 0.105882 0 1 0.117647 0 
1 0.105882 0 1 0.733333 0 
0.145098 1 0.854902 0 0.65098 1 
0.145098 1 0.854902 0 0.843137 1 
0 0.65098 1 0 0 0.858824 
0 0.890196 1 0 0.631373 1 
0.223529 1 0.776471 0 1 1 
0.145098 1 0.854902 0 0.65098 1 
0 0.843137 1 0.145098 1 0.854902 
0 0 0.858824 0 0.65098 1 
0 0.635294 1 0 0.92549 1 
0.188235 1 0.811765 0.145098 1 0.854902 
0 0.65098 1 1 0.733333 0 
1 0.67451 0 1 0.117647 0 
1 0.105882 0 1 0.117647 0 
1 0.67451 0 1 0.67451 0 
1 0.117647 0 0.545098 1 0.454902 
0.541176 1 0.458824 1 0.635294 0 
1 0.733333 0 1 0.12549 0 
1 0.105882 0 1 0.733333 0 
1 0.105882 0 1 0.643137 0 
1 0.733333 0 1 0.12549 0 
1 0.105882 0 1 0.12549 0 
1 0.733333 0 1 0.12549 0 
1 0.105882 0 1 0.643137 0 
1 0.733333 0 1 0.12549 0 
1 0.105882 0 1 0.643137 0 
1 0.733333 0 1 0.12549 0 
1 0.105882 0 1 0.12549 0 
1 0.67451 0 1 0.117647 0 
1 0.733333 0 1 0.105882 0 
1 0.67451 0 1 0.12549 0 
1 0.117647 0 1 0.643137 0 
1 0.733333 0 1 0.12549 0 
1 0.105882 0 0 0.65098 1 
0.145098 1 0.854902 1 0.615686 0 
1 0.12549 0 1 0.109804 0 
1 0.356863 0 1 0.105882 0 
0.517647 1 0.482353 1 0.67451 0 
0.552941 1 0.447059 1 0.12549 0 
1 0.117647 0 1 0.733333 0 
1 0.105882 0 1 0.67451 0 
1 0.733333 0 1 0.12549 0 
1 0.105882 0 1 0.117647 0 
1 0.643137 0 1 0.733333 0 
1 0.12549 0 1 0.105882 0 
1 0.643137 0 1 0.733333 0 
1 0.12549 0 1 0.105882 0 
1 0.12549 0 0 0 0.717647 
0.0705882 1 0.929412 0.0352941 1 0.964706 
1 0.27451 0 0.623529 0 0 
0.619608 0 0 1 0.490196 0 
1 0.462745 0 1 0.298039 0 
0 0.807843 1 0 0 0.615686 
0 0 0.623529 0 0 0.866667 
0.368627 1 0.631373 0.345098 1 0.654902 
1 0.0627451 0 1 0.0784314 0 
0 0 0.854902 0 0.839216 1 
0 0 0.698039 0.662745 0 0 
0.666667 0 0 1 0.752941 0 
1 0.737255 0 0 0.533333 1 
0 0 0.545098 0 0 0.54902 
0 0.0588235 1 0 0.0509804 1 
0 0.54902 1 0.670588 1 0.329412 
0.890196 0 0 0.894118 0 0 
0.756863 0 0 0.964706 1 0.0352941 
0.968627 1 0.0313725 0 0.282353 1 
0 0.282353 1 0.752941 0 0 
0.658824 1 0.341176 0 0 0.521569 
0 0 0.521569 1 0.556863 0 
1 0.12549 0 1 0.556863 0 
0 0.886275 1 0.0431373 1 0.956863 
0.0431373 1 0.956863 0 0 0.701961 
1 0.556863 0 0 0.886275 1 
0.0431373 1 0.956863 0 0 0.8 
0 0.301961 1 1 0.690196 0 
0 0.92549 1 0.835294 1 0.164706 
1 0.556863 0 0 0.92549 1 
0.0431373 1 0.956863 0 0 0.784314 
1 0.12549 0 0 0.886275 1 
0 0 0.717647 0.521569 0 0 
0.45098 1 0.54902 1 0.541176 0 
0 0.462745 1 1 0.541176 0 
0 0.462745 1 0 0 0.521569 
1 0.541176 0 0 0.462745 1 
0 0 0.521569 1 0.541176 0 
0 0.462745 1 0 0 0.521569 
1 0.541176 0 0 0.462745 1 
0 0 0.521569 1 0.541176 0 
0 0.462745 1 0 0 0.521569 
0.45098 1 0.54902 0 0 0.521569 
1 0.541176 0 0 0.462745 1 
0 0 0.521569 0.45098 1 0.54902 
0 0 0.521569 1 0.541176 0 
0 0.462745 1 0 0 0.521569 
1 0.541176 0 0 0.462745 1 
0 0 0.521569 1 0.541176 0 
0 0.462745 1 0 0 0.521569 
1 0.541176 0 0 0.462745 1 
0 0 0.521569 1 0.541176 0 
0 0.462745 1 0 0 0.521569 
0.45098 1 0.54902 0 0 0.521569 
1 0.541176 0 0 0.462745 1 
0 0 0.521569 0.45098 1 0.54902 
0 0 0.521569 1 0.541176 0 
0 0.462745 1 0 0 0.521569 
1 0.541176 0 0 0.462745 1 
0 0 0.521569 1 0.541176 0 
0 0.462745 1 0 0 0.521569 
1 0.541176 0 0 0.462745 1 
0 0 0.521569 1 0.541176 0 
0 0.462745 1 0 0 0.521569 
0.45098 1 0.54902 0 0 0.521569 
1 0.541176 0 0 0.462745 1 
0 0 0.521569 0.45098 1 0.54902 
0 0 0.521569 1 0.541176 0 
0 0.462745 1 0 0 0.521569 
1 0.541176 0 0 0.462745 1 
0 0 0.521569 1 0.541176 0 
0 0.462745 1 0 0 0.521569 
1 0.541176 0 0 0.462745 1 
0 0 0.521569 1 0.541176 0 
0 0.462745 1 0 0 0.521569 
0.45098 1 0.54902 0 0 0.521569 
1 0.27451 0 0.623529 0 0 
0.0705882 1 0.929412 0 0.807843 1 
0 0 0.866667 0.368627 1 0.631373 
0 0 0.615686 1 0.490196 0 
1 0.0627451 0 0.666667 0 0 
1 0.752941 0 0 0 0.545098 
0 0.0588235 1 0 0.533333 1 
0.890196 0 0 0.964706 1 0.0352941 
0 0.282353 1 0.756863 0 0 
0.670588 1 0.329412 0 0 0.772549 
1 0.196078 0 0.631373 0 0 
0.180392 1 0.819608 0 0.72549 1 
0 0 0.913725 0.439216 1 0.560784 
0 0 0.592157 1 0.568627 0 
1 0.0235294 0 0.678431 0 0 
1 0.8 0 0 0 0.537255 
0 0.0823529 1 0 0.494118 1 
0.878431 0 0 0.952941 1 0.0470588 
0 0.278431 1 0.760784 0 0 
0.698039 1 0.301961 0 0 0.87451 
1 0.0784314 0 0.658824 0 0 
0.364706 1 0.635294 0 0.596078 1 
0 0 0.992157 0.556863 1 0.443137 
0 0 0.560784 1 0.705882 0 
0.960784 0 0 0.705882 0 0 
1 0.882353 0 0 0 0.529412 
0 0.12549 1 0 0.427451 1 
0.858824 0 0 0.937255 1 0.0627451 
0 0.270588 1 0.772549 0 0 
0.74902 1 0.25098 0 0.0352941 1 
0.937255 0 0 0.713725 0 0 
0.607843 1 0.392157 0 0.427451 1 
0 0.105882 1 0.709804 1 0.290196 
0 0 0.533333 1 0.894118 0 
0.882353 0 0 0.74902 0 0 
1 0.992157 0 0 0 0.52549 
0 0.180392 1 0 0.341176 1 
0.835294 0 0 0.909804 1 0.0901961 
0 0.258824 1 0.788235 0 0 
0.811765 1 0.188235 0 0.266667 1 
0.8 0 0 0.815686 0 0 
0.905882 1 0.0941176 0 0.235294 1 
0 0.258824 1 0.894118 1 0.105882 
0 0 0.521569 0.862745 1 0.137255 
0.803922 0 0 0.811765 0 0 
0.870588 1 0.129412 0 0 0.521569 
0 0.254902 1 0 0.239216 1 
0.807843 0 0 0.878431 1 0.121569 
0 0.247059 1 0.807843 0 0 
0.886275 1 0.113725 0 0.568627 1 
0.647059 0 0 1 0.145098 0 
1 0.690196 0 0 0 0.772549 
0.0352941 1 0.964706 1 0.278431 0 
0 0 0.690196 0.219608 1 0.780392 
0.623529 0 0 1 0.529412 0 
0 0 0.584314 0 0 0.94902 
0 0.737255 1 0.94902 0 0 
1 0.980392 0 0 0.305882 1 
0.72549 0 0 0.529412 1 0.470588 
0 0.933333 1 0.615686 0 0 
1 0.388235 0 1 0.376471 0 
0 0 0.65098 0.278431 1 0.721569 
1 0.117647 0 0 0 0.815686 
0 0.917647 1 0.65098 0 0 
1 0.690196 0 0 0 0.552941 
0 0.027451 1 0 0.588235 1 
0.905882 0 0 0.980392 1 0.0196078 
0 0.290196 1 0.74902 0 0 
0.631373 1 0.368627 0.329412 1 0.670588 
0.65098 0 0 1 0.678431 0 
1 0.0980392 0 0 0 0.564706 
0.537255 1 0.462745 0.972549 0 0 
0 0 0.976471 0 0.619608 1 
0.701961 0 0 1 0.866667 0 
0 0 0.533333 0 0.117647 1 
0 0.439216 1 0.862745 0 0 
0.937255 1 0.0627451 0 0.270588 1 
0.772549 0 0 0.737255 1 0.262745 
0.737255 1 0.262745 0.752941 0 0 
1 0.996078 0 0.87451 0 0 
0 0 0.52549 0.788235 1 0.211765 
0.847059 0 0 0 0.168627 1 
0 0.341176 1 0.776471 0 0 
0.94902 1 0.0509804 0 0 0.521569 
0 0.211765 1 0 0.298039 1 
0.823529 0 0 0.898039 1 0.101961 
0 0.254902 1 0.796078 0 0 
0.843137 1 0.156863 1 0.886275 0 
1 0.0196078 0 0.694118 0 0 
0 0 0.858824 0 0.898039 1 
1 0.380392 0 0 0 0.631373 
0.396078 1 0.603922 0.615686 0 0 
1 0.439216 0 0 0.827451 1 
0 0 0.901961 0.470588 1 0.529412 
0 0 0.607843 0.713725 0 0 
0 0.313725 1 1 0.956863 0 
0.976471 0 0 1 0.564706 0 
1 0.235294 0 0.627451 0 0 
0 0 0.717647 0.133333 1 0.866667 
1 0.211765 0 0 0 0.733333 
0.0980392 1 0.901961 0.631373 0 0 
1 0.592157 0 0 0.678431 1 
0 0 0.976471 0 0 0.572549 
0.933333 0 0 1 0.996078 0 
0 0.298039 1 0.733333 0 0 
0.572549 1 0.427451 1 0.305882 0 
1 0.454902 0 0.619608 0 0 
0 0 0.627451 0.341176 1 0.658824 
1 0.0823529 0 0 0 0.85098 
0 0.843137 1 0.658824 0 0 
1 0.733333 0 0 0.552941 1 
0 0.0470588 1 0 0 0.54902 
0.894118 0 0 0.968627 1 0.0313725 
0 0.286275 1 0.752941 0 0 
0.658824 1 0.341176 1 0.121569 0 
1 0.65098 0 0.647059 0 0 
0 0 0.568627 0.513725 1 0.486275 
0.984314 0 0 0 0 0.960784 
0 0.643137 1 0.698039 0 0 
1 0.85098 0 0 0.45098 1 
0 0.109804 1 0 0 0.533333 
0.866667 0 0 0.941176 1 0.0588235 
0 0.27451 1 0.768627 0 0 
0.729412 1 0.270588 1 0 0 
1 0.807843 0 0.686275 0 0 
0 0 0.541176 0.639216 1 0.360784 
0.917647 0 0 0 0.0509804 1 
0 0.501961 1 0.729412 0 0 
1 0.941176 0 0 0.380392 1 
0 0.156863 1 0 0 0.52549 
0.843137 0 0 0.921569 1 0.0784314 
0 0.262745 1 0.780392 0 0 
0.780392 1 0.219608 0.929412 0 0 
1 0.905882 0 0.717647 0 0 
0 0 0.529412 0.717647 1 0.282353 
0.878431 0 0 0 0.113725 1 
0 0.419608 1 0.752941 0 0 
1 0.996078 0 0 0.337255 1 
0 0.184314 1 0 0 0.52549 
0.831373 0 0 0.909804 1 0.0901961 
0 0.258824 1 0.792157 0 0 
0.815686 1 0.184314 0.909804 0 0 
1 0.937255 0 0.733333 0 0 
0 0 0.529412 0.745098 1 0.254902 
0.866667 0 0 0 0.133333 1 
0 0.388235 1 0.760784 0 0 
0.984314 1 0.0156863 0 0.321569 1 
0 0.196078 1 0 0 0.521569 
0.827451 0 0 0.905882 1 0.0941176 
0 0.258824 1 0.792157 0 0 
0.823529 1 0.176471 0.717647 0 0 
0 0.419608 1 1 0.905882 0 
0 0.113725 1 0.878431 0 0 
0.752941 0 0 0.717647 1 0.282353 
0 0 0.529412 0.929412 0 0 
1 0.996078 0 0 0.337255 1 
0 0.184314 1 0 0 0.52549 
0.831373 0 0 0.909804 1 0.0901961 
0 0.258824 1 0.792157 0 0 
0.815686 1 0.184314 0.686275 0 0 
0 0.501961 1 1 0.807843 0 
0 0.0509804 1 0.917647 0 0 
0.729412 0 0 0.639216 1 0.360784 
0 0 0.541176 1 0 0 
1 0.941176 0 0 0.380392 1 
0 0.156863 1 0 0 0.52549 
0.843137 0 0 0.921569 1 0.0784314 
0 0.262745 1 0.780392 0 0 
0.780392 1 0.219608 0.647059 0 0 
0 0.643137 1 1 0.65098 0 
0 0 0.960784 0.984314 0 0 
0.698039 0 0 0.513725 1 0.486275 
0 0 0.568627 1 0.121569 0 
1 0.85098 0 0 0.45098 1 
0 0.109804 1 0 0 0.533333 
0.866667 0 0 0.941176 1 0.0588235 
0 0.27451 1 0.768627 0 0 
0.729412 1 0.270588 0.619608 0 0 
0 0.843137 1 1 0.454902 0 
0 0 0.85098 1 0.0823529 0 
0.658824 0 0 0.341176 1 0.658824 
0 0 0.627451 1 0.305882 0 
1 0.733333 0 0 0.552941 1 
0 0.0470588 1 0 0 0.54902 
0.894118 0 0 0.968627 1 0.0313725 
0 0.286275 1 0.752941 0 0 
0.658824 1 0.341176 0.627451 0 0 
0.0980392 1 0.901961 1 0.235294 0 
0 0 0.733333 1 0.211765 0 
0.631373 0 0 0.133333 1 0.866667 
0 0 0.717647 1 0.564706 0 
1 0.592157 0 0 0.678431 1 
0 0 0.976471 0 0 0.572549 
0.933333 0 0 1 0.996078 0 
0 0.298039 1 0.733333 0 0 
0.572549 1 0.427451 0.694118 0 0 
0.396078 1 0.603922 1 0.0196078 0 
0 0 0.631373 1 0.380392 0 
0.615686 0 0 0 0.898039 1 
0 0 0.858824 1 0.886275 0 
1 0.439216 0 0 0.827451 1 
0 0 0.901961 0 0 0.607843 
0.976471 0 0 1 0.956863 0 
0 0.313725 1 0.713725 0 0 
0.470588 1 0.529412 0.87451 0 0 
1 0.996078 0 0.752941 0 0 
0 0 0.52549 0.788235 1 0.211765 
0.847059 0 0 0 0.168627 1 
0 0.341176 1 0.737255 1 0.262745 
0.776471 0 0 0.94902 1 0.0509804 
0 0 0.521569 0 0.211765 1 
0 0.298039 1 0.823529 0 0 
0.898039 1 0.101961 0 0.254902 1 
0.796078 0 0 0.843137 1 0.156863 
1 0.0980392 0 1 0.678431 0 
0 0.619608 1 0.65098 0 0 
0 0 0.976471 0.972549 0 0 
0.701961 0 0 0.537255 1 0.462745 
0 0 0.564706 0.329412 1 0.670588 
1 0.866667 0 0 0.439216 1 
0 0.117647 1 0.737255 1 0.262745 
0 0 0.533333 0.772549 0 0 
0 0.270588 1 0.937255 1 0.0627451 
0.862745 0 0 1 0.376471 0 
1 0.388235 0 0 0.917647 1 
0.615686 0 0 0 0 0.815686 
1 0.117647 0 0.65098 0 0 
0.278431 1 0.721569 0 0 0.65098 
0 0.933333 1 1 0.690196 0 
0 0.588235 1 0 0.027451 1 
0.631373 1 0.368627 0 0 0.552941 
0.74902 0 0 0 0.290196 1 
0.980392 1 0.0196078 0.905882 0 0 
1 0.690196 0 1 0.145098 0 
0.219608 1 0.780392 0.647059 0 0 
0 0 0.690196 1 0.278431 0 
0.623529 0 0 0.0352941 1 0.964706 
0 0 0.772549 0 0.568627 1 
1 0.529412 0 0 0.737255 1 
0 0 0.94902 0.529412 1 0.470588 
0 0 0.584314 0.72549 0 0 
0 0.305882 1 1 0.980392 0 
0.94902 0 0 0.905882 1 0.0941176 
0.815686 0 0 0.862745 1 0.137255 
0.8 0 0 0 0 0.521569 
0.894118 1 0.105882 0.803922 0 0 
0 0.258824 1 0 0.235294 1 
0 0.266667 1 0.811765 0 0 
0.870588 1 0.129412 0 0 0.521569 
0 0.254902 1 0 0.239216 1 
0.807843 0 0 0.878431 1 0.121569 
0 0.247059 1 0.807843 0 0 
0.886275 1 0.113725 0.607843 1 0.392157 
0.713725 0 0 1 0.894118 0 
0.937255 0 0 0 0 0.533333 
0.709804 1 0.290196 0.882353 0 0 
0 0.105882 1 0 0.427451 1 
0 0.0352941 1 0.74902 0 0 
1 0.992157 0 0 0 0.52549 
0 0.180392 1 0 0.341176 1 
0.835294 0 0 0.909804 1 0.0901961 
0 0.258824 1 0.788235 0 0 
0.811765 1 0.188235 0.364706 1 0.635294 
0.658824 0 0 1 0.705882 0 
1 0.0784314 0 0 0 0.560784 
0.556863 1 0.443137 0.960784 0 0 
0 0 0.992157 0 0.596078 1 
0 0 0.87451 0.705882 0 0 
1 0.882353 0 0 0 0.529412 
0 0.12549 1 0 0.427451 1 
0.858824 0 0 0.937255 1 0.0627451 
0 0.270588 1 0.772549 0 0 
0.74902 1 0.25098 0.180392 1 0.819608 
0.631373 0 0 1 0.568627 0 
1 0.196078 0 0 0 0.592157 
0.439216 1 0.560784 1 0.0235294 0 
0 0 0.913725 0 0.72549 1 
0 0 0.772549 0.678431 0 0 
1 0.8 0 0 0 0.537255 
0 0.0823529 1 0 0.494118 1 
0.878431 0 0 0.952941 1 0.0470588 
0 0.278431 1 0.760784 0 0 
0.698039 1 0.301961 0 0 0.784314 
0 0 0.701961 0 0 0.698039 
0 0 0.717647 0 0 0.772549 
0 0 0.87451 0 0.0352941 1 
0 0.266667 1 0 0.568627 1 
0 0.933333 1 0.329412 1 0.670588 
0.737255 1 0.262745 1 0.886275 0 
1 0.564706 0 1 0.305882 0 
1 0.121569 0 1 0 0 
1 0.556863 0 0.0431373 1 0.956863 
0 0.92549 1 0 0.301961 1 
0 0 0.8 0 0 0.784314 
0 0 0.701961 0 0 0.698039 
0 0 0.717647 0 0 0.772549 
0 0 0.87451 0 0.0352941 1 
0 0.266667 1 0 0.568627 1 
0 0.933333 1 0.329412 1 0.670588 
0.737255 1 0.262745 1 0.886275 0 
1 0.564706 0 1 0.305882 0 
1 0.121569 0 1 0.12549 0 
1 0.556863 0 0 0.886275 1 
0.0431373 1 0.956863 0 0.92549 1 
0 0.92549 1 0 0.301961 1 
0 0 0.8 0 0 0.784314 
0 0 0.701961 0 0 0.698039 
0 0 0.717647 0 0 0.772549 
0 0 0.87451 0 0.0352941 1 
0 0.266667 1 0 0.568627 1 
0 0.933333 1 0.329412 1 0.670588 
0.737255 1 0.262745 1 0.886275 0 
1 0.564706 0 1 0.305882 0 
1 0.12549 0 1 0.556863 0 
0 0.886275 1 0.0431373 1 0.956863 
0 0.92549 1 0 0.92549 1 
0 0.301961 1 0 0 0.8 
0 0 0.784314 0 0 0.701961 
0 0 0.698039 0 0 0.717647 
0 0 0.772549 0 0 0.87451 
0 0.0352941 1 0 0.266667 1 
0 0.568627 1 0 0.933333 1 
0.329412 1 0.670588 0.737255 1 0.262745 
1 0.886275 0 1 0.564706 0 
1 0.556863 0 0 0.886275 1 
0.0431373 1 0.956863 0 0.92549 1 
0 0.92549 1 0 0.301961 1 
0 0 0.8 0 0 0.784314 
0 0 0.701961 0 0 0.698039 
0 0 0.717647 0 0 0.772549 
0 0 0.87451 0 0.0352941 1 
0 0.266667 1 0 0.568627 1 
0 0.933333 1 0.329412 1 0.670588 
0.737255 1 0.262745 1 0.886275 0 
1 0.556863 0 0 0.886275 1 
0.0431373 1 0.956863 0 0.92549 1 
0 0.92549 1 0 0.301961 1 
0 0 0.8 0 0 0.784314 
0 0 0.701961 0 0 0.698039 
0 0 0.717647 0 0 0.772549 
0 0 0.87451 0 0.0352941 1 
0 0.266667 1 0 0.568627 1 
0 0.933333 1 0.329412 1 0.670588 
0.737255 1 0.262745 1 0.12549 0 
1 0.556863 0 0 0.886275 1 
0.0431373 1 0.956863 0 0.92549 1 
0 0.92549 1 0 0.301961 1 
0 0 0.8 0 0 0.784314 
0 0 0.701961 0 0 0.698039 
0 0 0.717647 0 0 0.772549 
0 0 0.87451 0 0.0352941 1 
0 0.266667 1 0 0.568627 1 
0 0.933333 1 0.329412 1 0.670588 
1 0.12549 0 1 0.556863 0 
0 0.886275 1 0.0431373 1 0.956863 
0 0.92549 1 0 0.92549 1 
0 0.301961 1 0 0 0.8 
0 0 0.784314 0 0 0.701961 
0 0 0.698039 0 0 0.717647 
0 0 0.772549 0 0 0.87451 
0 0.0352941 1 0 0.266667 1 
0 0.568627 1 0 0.933333 1 
1 0.556863 0 0 0.886275 1 
0.0431373 1 0.956863 0 0.92549 1 
0 0.92549 1 0 0.301961 1 
0 0 0.8 0 0 0.784314 
0 0 0.701961 0 0 0.698039 
0 0 0.717647 0 0 0.772549 
0 0 0.87451 0 0.0352941 1 
0 0.266667 1 0 0.568627 1 
1 0.556863 0 0 0.886275 1 
0.0431373 1 0.956863 0 0.92549 1 
0 0.92549 1 0 0.301961 1 
0 0 0.8 0 0 0.784314 
0 0 0.701961 0 0 0.698039 
0 0 0.717647 0 0 0.772549 
0 0 0.87451 0 0.0352941 1 
0 0.266667 1 1 0.12549 0 
1 0.556863 0 0 0.886275 1 
0.0431373 1 0.956863 0 0.92549 1 
0 0.92549 1 0 0.301961 1 
0 0 0.8 0 0 0.784314 
0 0 0.701961 0 0 0.698039 
0 0 0.717647 0 0 0.772549 
0 0 0.87451 0 0.0352941 1 
1 0.12549 0 1 0.556863 0 
0 0.886275 1 0.0431373 1 0.956863 
0 0.92549 1 0 0.92549 1 
0 0.301961 1 0 0 0.8 
0 0 0.784314 0 0 0.701961 
0 0 0.698039 0 0 0.717647 
0 0 0.772549 0 0 0.87451 
0 0.886275 1 0.0431373 1 0.956863 
0 0.92549 1 0 0.92549 1 
0 0.301961 1 0 0 0.8 
0 0 0.784314 0 0 0.701961 
0 0 0.698039 0 0 0.717647 
0 0 0.772549 0 0.921569 1 
0 0.298039 1 0 0 0.94902 
0 0 0.701961 0 0 0.698039 
0 0 0.717647 0 0 0.705882 
0 0 0.686275 0 0 0.694118 
0 0 0.698039 0.552941 1 0.447059 
0.505882 1 0.494118 0.505882 1 0.494118 
0.45098 1 0.54902 1 0.870588 0 
1 0.870588 0 0.552941 1 0.447059 
0.45098 1 0.54902 0.552941 1 0.447059 
0.45098 1 0.54902 0.552941 1 0.447059 
0.505882 1 0.494118 0.505882 1 0.494118 
0.552941 1 0.447059 0.505882 1 0.494118 
0.505882 1 0.494118 0.45098 1 0.54902 
1 0.870588 0 1 0.870588 0 
0.552941 1 0.447059 0.45098 1 0.54902 
0.552941 1 0.447059 0.45098 1 0.54902 
0.552941 1 0.447059 0.505882 1 0.494118 
0.505882 1 0.494118 0.45098 1 0.54902 
0.470588 1 0.529412 0.470588 1 0.529412 
0.470588 1 0.529412 0.470588 1 0.529412 
0.552941 1 0.447059 0.505882 1 0.494118 
0.505882 1 0.494118 0.45098 1 0.54902 
1 0.870588 0 1 0.870588 0 
0.552941 1 0.447059 0.45098 1 0.54902 
0.552941 1 0.447059 0.45098 1 0.54902 
0.505882 1 0.494118 0.505882 1 0.494118 
0.552941 1 0.447059 0.505882 1 0.494118 
0.505882 1 0.494118 0.45098 1 0.54902 
1 0.870588 0 1 0.870588 0 
0.45098 1 0.54902 0.552941 1 0.447059 
0.45098 1 0.54902 0.552941 1 0.447059 
0.505882 1 0.494118 0.505882 1 0.494118 
0.470588 1 0.529412 0.470588 1 0.529412 
0.45098 1 0.54902 0.470588 1 0.529412 
0.470588 1 0.529412 0.45098 1 0.54902 