# vtk DataFile Version 3.0
vtk output
ASCII
DATASET POLYDATA
POINTS 699 float
0.5 0.2 0.3 0.5 0.2 1.2 0.5 1 1.2 
0.5 1 0.3 1.2 0.2 0.3 1.2 1 0.3 
1.2 1 1.2 1.2 0.2 1.2 0.5 0.2 0.3 
0.5 0.2 0.3 0.5 0.2 1.2 0.5 0.2 1.2 
0.5 1 1.2 0.5 1 1.2 0.5 1 0.3 
0.5 1 0.3 1.2 0.2 0.3 1.2 0.2 0.3 
1.2 1 0.3 1.2 1 0.3 1.2 1 1.2 
1.2 1 1.2 1.2 0.2 1.2 1.2 0.2 1.2 
0.5 0.2 0.39 0.5 0.2 0.48 0.5 0.2 0.57 
0.5 0.2 0.66 0.5 0.2 0.75 0.5 0.2 0.84 
0.5 0.2 0.93 0.5 0.2 1.02 0.5 0.2 1.11 
0.5 0.3 1.2 0.5 0.4 1.2 0.5 0.5 1.2 
0.5 0.6 1.2 0.5 0.7 1.2 0.5 0.8 1.2 
0.5 0.9 1.2 0.5 1 1.11 0.5 1 1.02 
0.5 1 0.93 0.5 1 0.84 0.5 1 0.75 
0.5 1 0.66 0.5 1 0.57 0.5 1 0.48 
0.5 1 0.39 0.5 0.9 0.3 0.5 0.8 0.3 
0.5 0.7 0.3 0.5 0.6 0.3 0.5 0.5 0.3 
0.5 0.4 0.3 0.5 0.3 0.3 0.5 0.45 0.546111 
0.5 0.85 0.445556 0.5 0.512 0.885 0.5 0.35 1.05444 
0.5 0.7785 0.975 0.5 0.55 0.438293 0.5 0.35 0.438293 
0.5 0.330441 0.615 0.5 0.910712 0.525 0.5 0.931379 0.435 
0.5 0.933469 0.363367 0.5 0.85 0.36419 0.5 0.743856 0.404873 
0.5 0.365736 0.795 0.5 0.55 1.04418 0.5 0.268621 1.065 
0.5 0.266531 1.13663 0.5 0.2971 0.965584 0.5 0.35 1.13581 
0.5 0.452352 1.09513 0.5 0.85 1.0817 0.5 0.893821 0.975 
0.5 0.820683 0.795 0.5 0.55 0.360107 0.5 0.45 0.3992 
0.5 0.643069 0.3992 0.5 0.35 0.360107 0.5 0.274417 0.372131 
0.5 0.288507 0.525 0.5 0.257459 0.615 0.5 0.75 0.340697 
0.5 0.276759 0.795 0.5 0.29395 0.702122 0.5 0.55 1.13011 
0.5 0.661302 1.08714 0.5 0.41574 0.955132 0.5 0.45 1.15946 
0.5 0.85 1.15141 0.5 0.921093 1.11655 0.5 0.915988 0.795 
0.5 0.681033 0.619916 0.5 0.368336 0.542574 0.5 0.273626 0.449287 
0.5 0.275958 0.8816 0.5 0.351735 0.907177 0.5 0.65 1.15408 
0.5 0.75 1.11979 0.5 0.358938 0.988947 0.5 0.868336 0.671705 
0.5 0.868336 0.880497 0.5 0.788769 0.555269 0.5 0.636523 0.513949 
0.5 0.728855 1.04043 0.5 0.646475 0.926373 0.5 0.655537 1.00661 
0.5 0.709083 0.95993 0.5 0.763529 0.876549 0.5 0.868336 0.742561 
0.5 0.937648 0.705 0.5 0.929647 0.615 0.5 0.854789 0.595558 
0.5 0.836161 0.939862 0.5 0.930744 0.914355 0.5 0.843177 0.513691 
0.5 0.772892 0.478106 0.5 0.696791 0.465906 0.5 0.611752 0.454975 
0.5 0.684519 0.760371 0.5 0.746039 0.803488 0.5 0.770326 0.703388 
0.5 0.671287 0.844699 0.5 0.788218 0.630408 0.5 0.571659 0.785863 
0.5 0.699432 0.68973 0.5 0.592496 0.680579 0.5 0.836161 1.01366 
0.5 0.421075 0.472656 0.5 0.493792 0.486444 0.5 0.472674 1.01503 
0.5 0.536324 0.963317 0.5 0.928139 1.04179 0.5 0.426816 0.859586 
0.5 0.46735 0.760075 0.5 0.39351 0.69262 0.5 0.491372 0.659638 
0.5 0.409963 0.614819 0.5 0.531138 0.72224 0.5 0.560002 0.582862 
0.5 0.615197 0.618769 0.5 0.563656 0.509979 0.5 0.495155 0.593957 
0.5 0.709676 0.545553 0.5 0.591632 0.865402 0.5 0.620809 0.740887 
0.5 0.508954 0.815647 1.2 0.3 0.3 1.2 0.4 0.3 
1.2 0.5 0.3 1.2 0.6 0.3 1.2 0.7 0.3 
1.2 0.8 0.3 1.2 0.9 0.3 1.2 1 0.39 
1.2 1 0.48 1.2 1 0.57 1.2 1 0.66 
1.2 1 0.75 1.2 1 0.84 1.2 1 0.93 
1.2 1 1.02 1.2 1 1.11 1.2 0.9 1.2 
1.2 0.8 1.2 1.2 0.7 1.2 1.2 0.6 1.2 
1.2 0.5 1.2 1.2 0.4 1.2 1.2 0.3 1.2 
1.2 0.2 1.11 1.2 0.2 1.02 1.2 0.2 0.93 
1.2 0.2 0.84 1.2 0.2 0.75 1.2 0.2 0.66 
1.2 0.2 0.57 1.2 0.2 0.48 1.2 0.2 0.39 
1.2 0.4215 0.525 1.2 0.55 0.853333 1.2 0.35 1.05444 
1.2 0.75 0.546111 1.2 0.85 1.05444 1.2 0.324463 0.615 
1.2 0.324463 0.435 1.2 0.45 0.408749 1.2 0.55 1.03027 
1.2 0.376968 0.795 1.2 0.773469 0.795 1.2 0.35 1.13581 
1.2 0.274082 1.12824 1.2 0.456144 1.09513 1.2 0.289288 0.975 
1.2 0.75 0.417977 1.2 0.878159 0.525 1.2 0.910712 0.975 
1.2 0.931379 1.065 1.2 0.933469 1.13663 1.2 0.85 1.13581 
1.2 0.743856 1.09513 1.2 0.254097 0.615 1.2 0.28928 0.525 
1.2 0.254097 0.435 1.2 0.35 0.360656 1.2 0.45 0.34288 
1.2 0.55 0.388858 1.2 0.55 1.1225 1.2 0.282763 0.795 
1.2 0.28147 0.702923 1.2 0.891204 0.795 1.2 0.45 1.1593 
1.2 0.272546 1.05071 1.2 0.427946 0.931957 1.2 0.75 0.348393 
1.2 0.85 0.390774 1.2 0.947389 0.525 1.2 0.921427 0.441393 
1.2 0.776274 0.935182 1.2 0.75 1.1593 1.2 0.65 1.11748 
1.2 0.35539 0.498967 1.2 0.517529 0.486924 1.2 0.329866 0.883411 
1.2 0.37978 0.696522 1.2 0.366511 0.978907 1.2 0.441684 1.0136 
1.2 0.81723 0.467715 1.2 0.929425 0.367861 1.2 0.835895 0.980745 
1.2 0.762068 1.01556 1.2 0.860372 0.886926 1.2 0.651291 0.954538 
1.2 0.455983 0.471835 1.2 0.639866 0.473023 1.2 0.400408 0.864241 
1.2 0.471045 0.801741 1.2 0.266093 0.909941 1.2 0.413743 0.613948 
1.2 0.791755 0.864753 1.2 0.68662 0.855041 1.2 0.928574 0.858668 
1.2 0.575485 0.451705 1.2 0.641114 0.381631 1.2 0.47855 0.876465 
1.2 0.539173 0.941803 1.2 0.610742 0.674165 1.2 0.489628 0.693431 
1.2 0.600206 0.904375 1.2 0.832337 0.663898 1.2 0.713198 0.482044 
1.2 0.709824 0.919301 1.2 0.679375 0.751727 1.2 0.618889 0.80788 
1.2 0.716652 0.649594 1.2 0.750969 0.719988 1.2 0.588733 0.568299 
1.2 0.668426 0.550366 1.2 0.497406 0.576432 1.2 0.43597 0.739974 
1.2 0.832337 0.742665 1.2 0.917129 0.703282 1.2 0.912774 0.610834 
1.2 0.546869 0.759002 1.2 0.77992 0.612868 1.2 0.84598 0.587874 
1.2 0.813121 0.532217 1.2 0.653714 0.618849 1.2 0.542934 0.638217 
1.2 0.678485 1.03623 1.2 0.613052 1.05891 0.5875 0.2 0.3 
0.675 0.2 0.3 0.7625 0.2 0.3 0.85 0.2 0.3 
0.9375 0.2 0.3 1.025 0.2 0.3 1.1125 0.2 0.3 
1.2 0.2 0.39 1.2 0.2 0.48 1.2 0.2 0.57 
1.2 0.2 0.66 1.2 0.2 0.75 1.2 0.2 0.84 
1.2 0.2 0.93 1.2 0.2 1.02 1.2 0.2 1.11 
1.1125 0.2 1.2 1.025 0.2 1.2 0.9375 0.2 1.2 
0.85 0.2 1.2 0.7625 0.2 1.2 0.675 0.2 1.2 
0.5875 0.2 1.2 0.5 0.2 1.11 0.5 0.2 1.02 
0.5 0.2 0.93 0.5 0.2 0.84 0.5 0.2 0.75 
0.5 0.2 0.66 0.5 0.2 0.57 0.5 0.2 0.48 
0.5 0.2 0.39 0.71875 0.2 0.517604 0.80625 0.2 0.894861 
0.98125 0.2 0.517604 0.63125 0.2 0.421996 0.80625 0.2 0.421996 
0.80625 0.2 1.05057 0.98125 0.2 0.404404 0.63125 0.2 0.353153 
0.71875 0.2 0.387575 0.80625 0.2 0.353153 0.893322 0.2 0.38024 
0.80625 0.2 1.13169 0.98125 0.2 1.02922 0.701737 0.2 1.09113 
1.06875 0.2 1.0978 0.900001 0.2 1.09113 0.626429 0.2 0.615 
0.649978 0.2 0.885 0.993033 0.2 0.795 1.09513 0.2 0.525 
0.558555 0.2 0.435 0.610922 0.2 0.518051 0.743695 0.2 0.45259 
0.887878 0.2 0.480549 0.806586 0.2 0.514012 1.08853 0.2 0.975 
0.597542 0.2 1.065 0.63125 0.2 1.13538 1.13799 0.2 1.065 
0.983506 0.2 1.11645 0.555206 0.2 0.615 0.568238 0.2 0.885 
0.609108 0.2 0.779596 0.57757 0.2 0.6988 0.609108 0.2 0.970732 
1.10141 0.2 0.795 0.664676 0.2 0.479249 0.665007 0.2 0.559115 
0.949673 0.2 0.461004 1.15335 0.2 0.975 0.722911 0.2 0.972377 
0.662901 0.2 1.02518 1.02954 0.2 0.654501 1.04211 0.2 0.461004 
1.06875 0.2 0.376763 1.13629 0.2 0.364407 1.04988 0.2 1.03176 
0.989469 0.2 0.912226 0.734314 0.2 0.791673 0.751363 0.2 0.659985 
0.671049 0.2 0.708865 0.765369 0.2 0.581852 0.891934 0.2 0.612308 
0.867745 0.2 0.54711 0.820246 0.2 0.63201 0.886936 0.2 0.734393 
1.11767 0.2 0.886624 1.05679 0.2 0.915542 0.727849 0.2 0.894128 
0.800944 0.2 0.972714 0.894407 0.2 0.939977 0.891403 0.2 0.837158 
0.954327 0.2 0.968541 0.87672 0.2 1.01631 0.81316 0.2 0.813376 
0.793058 0.2 0.732331 0.928931 0.2 0.784047 0.966687 0.2 0.70953 
0.959392 0.2 0.63779 0.740791 0.2 1.03683 1.03465 0.2 0.575732 
1.11595 0.2 0.620562 1.10005 0.2 0.707062 1.03388 0.2 0.735615 
0.668673 0.2 0.817125 1.04722 0.2 0.843471 0.95736 0.2 0.852583 
1.02091 0.2 0.971726 1.12393 0.2 0.446572 0.5 1 0.39 
0.5 1 0.48 0.5 1 0.57 0.5 1 0.66 
0.5 1 0.75 0.5 1 0.84 0.5 1 0.93 
0.5 1 1.02 0.5 1 1.11 0.5875 1 1.2 
0.675 1 1.2 0.7625 1 1.2 0.85 1 1.2 
0.9375 1 1.2 1.025 1 1.2 1.1125 1 1.2 
1.2 1 1.11 1.2 1 1.02 1.2 1 0.93 
1.2 1 0.84 1.2 1 0.75 1.2 1 0.66 
1.2 1 0.57 1.2 1 0.48 1.2 1 0.39 
1.1125 1 0.3 1.025 1 0.3 0.9375 1 0.3 
0.85 1 0.3 0.7625 1 0.3 0.675 1 0.3 
0.5875 1 0.3 0.71875 1 0.517604 0.98125 1 0.517604 
0.71875 1 0.982396 0.98125 1 0.982396 0.80625 1 0.421996 
0.63125 1 0.421996 1.06875 1 0.421996 0.63125 1 1.078 
0.80625 1 1.078 0.98125 1 1.0956 0.80625 1 0.353153 
0.71875 1 0.387575 0.63125 1 0.353153 1.06875 1 0.353153 
0.63125 1 1.14685 0.71875 1 1.11243 0.80625 1 1.14685 
0.893322 1 1.11976 0.626429 1 0.615 1.01499 1 0.705 
0.626429 1 0.885 1.09513 1 0.975 0.558555 1 0.435 
0.610922 1 0.518051 1.10167 1 0.525 1.14145 1 0.435 
0.558555 1 1.065 0.610922 1 0.98195 0.693806 1 0.45259 
0.743695 1 1.04741 0.887878 1 1.01945 0.806586 1 0.985988 
0.555206 1 0.615 1.11297 1 0.705 0.555206 1 0.885 
0.665007 1 0.559115 0.811151 1 0.701257 0.75186 1 0.616017 
0.768443 1 0.842974 0.765276 1 0.920412 0.701889 1 0.879036 
0.672163 1 0.744731 0.706245 1 0.80763 0.770818 1 0.766396 
0.911354 1 0.80908 0.846937 1 0.768472 0.853946 1 0.885255 
0.923839 1 0.717878 0.664676 1 1.02075 0.665007 1 0.940885 
0.949673 1 1.039 1.06398 1 0.61772 1.06398 1 0.832139 
0.877349 1 0.591971 0.732245 1 0.692902 0.664101 1 0.674646 
0.58522 1 0.719226 0.575976 1 0.803157 0.911241 1 0.942156 
0.988621 1 0.888553 1.1394 1 0.615 1.03947 1 0.553734 
0.968925 1 0.617438 1.13436 1 0.795 1.06398 1 0.759131 
0.986365 1 0.780136 1.12916 1 0.885 0.819951 1 0.631895 
0.803108 1 0.543999 0.640616 1 0.819781 1.03564 1 0.939457 
0.922411 1 0.875627 0.910152 1 0.651395 0.88697 1 0.495647 
0.776117 1 0.482262 0.956771 1 0.409326 0.884571 1 0.373037 
1.04211 1 1.039 1.06875 1 1.12324 1.13629 1 1.13559 
1.00836 1 0.454569 1.12393 1 1.05343 0.5 0.3 0.3 
0.5 0.4 0.3 0.5 0.5 0.3 0.5 0.6 0.3 
0.5 0.7 0.3 0.5 0.8 0.3 0.5 0.9 0.3 
0.5875 1 0.3 0.675 1 0.3 0.7625 1 0.3 
0.85 1 0.3 0.9375 1 0.3 1.025 1 0.3 
1.1125 1 0.3 1.2 0.9 0.3 1.2 0.8 0.3 
1.2 0.7 0.3 1.2 0.6 0.3 1.2 0.5 0.3 
1.2 0.4 0.3 1.2 0.3 0.3 1.1125 0.2 0.3 
1.025 0.2 0.3 0.9375 0.2 0.3 0.85 0.2 0.3 
0.7625 0.2 0.3 0.675 0.2 0.3 0.5875 0.2 0.3 
0.71875 0.414844 0.3 0.98125 0.414844 0.3 0.71875 0.785156 0.3 
0.98125 0.785156 0.3 0.80625 0.320786 0.3 0.63125 0.320786 0.3 
1.06875 0.320786 0.3 0.63125 0.879214 0.3 0.80625 0.879214 0.3 
0.98125 0.897033 0.3 0.80625 0.252469 0.3 0.71875 0.286627 0.3 
0.63125 0.252469 0.3 1.06875 0.252469 0.3 0.63125 0.947531 0.3 
0.71875 0.913373 0.3 0.80625 0.947531 0.3 0.892997 0.919673 0.3 
0.606486 0.45 0.3 1.05459 0.55 0.3 0.606486 0.75 0.3 
1.09351 0.75 0.3 0.559353 0.35 0.3 1.14065 0.35 0.3 
0.559353 0.85 0.3 0.693359 0.350736 0.3 0.744141 0.849264 0.3 
[...]
POINT_DATA 699
NORMALS Normals float
-1 0 0 -1 0 0 -1 0 0 
-1 0 0 1 0 0 1 0 0 
1 0 0 1 0 0 0 -1 0 
0 0 -1 0 -1 0 0 0 1 
0 1 0 0 0 1 0 1 0 
0 0 -1 0 -1 0 0 0 -1 
0 1 0 0 0 -1 0 1 0 
0 0 1 0 -1 0 0 0 1 
-1 0 0 -1 0 0 -1 0 0 
-1 0 0 -1 0 0 -1 0 0 
-1 0 0 -1 0 0 -1 0 0 
-1 0 0 -1 0 0 -1 0 0 
-1 0 0 -1 0 0 -1 0 0 
-1 0 0 -1 0 0 -1 0 0 
-1 0 0 -1 0 0 -1 0 0 
-1 0 0 -1 0 0 -1 0 0 
-1 0 0 -1 0 0 -1 0 0 
-1 0 0 -1 0 0 -1 0 0 
-1 0 0 -1 0 0 -1 0 0 
-1 0 0 -1 0 0 -1 0 0 
-1 0 0 -1 0 0 -1 0 0 
-1 0 0 -1 0 0 -1 0 0 
-1 0 0 -1 0 0 -1 0 0 
-1 0 0 -1 0 0 -1 0 0 
-1 0 0 -1 0 0 -1 0 0 
-1 0 0 -1 0 0 -1 0 0 
-1 0 0 -1 0 0 -1 0 0 
-1 0 0 -1 0 0 -1 0 0 
-1 0 0 -1 0 0 -1 0 0 
-1 0 0 -1 0 0 -1 0 0 
-1 0 0 -1 0 0 -1 0 0 
-1 0 0 -1 0 0 -1 0 0 
-1 0 0 -1 0 0 -1 0 0 
-1 0 0 -1 0 0 -1 0 0 
-1 0 0 -1 0 0 -1 0 0 
-1 0 0 -1 0 0 -1 0 0 
-1 0 0 -1 0 0 -1 0 0 
-1 0 0 -1 0 0 -1 0 0 
-1 0 0 -1 0 0 -1 0 0 
-1 0 0 -1 0 0 -1 0 0 
-1 0 0 -1 0 0 -1 0 0 
-1 0 0 -1 0 0 -1 0 0 
-1 0 0 -1 0 0 -1 0 0 
-1 0 0 -1 0 0 -1 0 0 
-1 0 0 -1 0 0 -1 0 0 
-1 0 0 -1 0 0 -1 0 0 
-1 0 0 -1 0 0 -1 0 0 
-1 0 0 -1 0 0 -1 0 0 
-1 0 0 -1 0 0 -1 0 0 
-1 0 0 -1 0 0 -1 0 0 
-1 0 0 1 0 0 1 0 0 
1 0 0 1 0 0 1 0 0 
1 0 0 1 0 0 1 0 0 
1 0 0 1 0 0 1 0 0 
1 0 0 1 0 0 1 0 0 
1 0 0 1 0 0 1 0 0 
1 0 0 1 0 0 1 0 0 
1 0 0 1 0 0 1 0 0 
1 0 0 1 0 0 1 0 0 
1 0 0 1 0 0 1 0 0 
1 0 0 1 0 0 1 0 0 
1 0 0 1 0 0 1 0 0 
1 0 0 1 0 0 1 0 0 
1 0 0 1 0 0 1 0 0 
1 0 0 1 0 0 1 0 0 
1 0 0 1 0 0 1 0 0 
1 0 0 1 0 0 1 0 0 
1 0 0 1 0 0 1 0 0 
1 0 0 1 0 0 1 0 0 
1 0 0 1 0 0 1 0 0 
1 0 0 1 0 0 1 0 0 
1 0 0 1 0 0 1 0 0 
1 0 0 1 0 0 1 0 0 
1 0 0 1 0 0 1 0 0 
1 0 0 1 0 0 1 0 0 
1 0 0 1 0 0 1 0 0 
1 0 0 1 0 0 1 0 0 
1 0 0 1 0 0 1 0 0 
1 0 0 1 0 0 1 0 0 
1 0 0 1 0 0 1 0 0 
1 0 0 1 0 0 1 0 0 
1 0 0 1 0 0 1 0 0 
1 0 0 1 0 0 1 0 0 
1 0 0 1 0 0 1 0 0 
1 0 0 1 0 0 1 0 0 
1 0 0 1 0 0 1 0 0 
1 0 0 1 0 0 1 0 0 
1 0 0 1 0 0 1 0 0 
1 0 0 1 0 0 1 0 0 
1 0 0 1 0 0 1 0 0 
1 0 0 1 0 0 1 0 0 
1 0 0 1 0 0 0 -1 0 
0 -1 0 0 -1 0 0 -1 0 
0 -1 0 0 -1 0 0 -1 0 
0 -1 0 0 -1 0 0 -1 0 
0 -1 0 0 -1 0 0 -1 0 
0 -1 0 0 -1 0 0 -1 0 
0 -1 0 0 -1 0 0 -1 0 
0 -1 0 0 -1 0 0 -1 0 
0 -1 0 0 -1 0 0 -1 0 
0 -1 0 0 -1 0 0 -1 0 
0 -1 0 0 -1 0 0 -1 0 
0 -1 0 0 -1 0 0 -1 0 
0 -1 0 0 -1 0 0 -1 0 
0 -1 0 0 -1 0 0 -1 0 
0 -1 0 0 -1 0 0 -1 0 
0 -1 0 0 -1 0 0 -1 0 
0 -1 0 0 -1 0 0 -1 0 
0 -1 0 0 -1 0 0 -1 0 
0 -1 0 0 -1 0 0 -1 0 
0 -1 0 0 -1 0 0 -1 0 
0 -1 0 0 -1 0 0 -1 0 
0 -1 0 0 -1 0 0 -1 0 
0 -1 0 0 -1 0 0 -1 0 
0 -1 0 0 -1 0 0 -1 0 
0 -1 0 0 -1 0 0 -1 0 
0 -1 0 0 -1 0 0 -1 0 
0 -1 0 0 -1 0 0 -1 0 
0 -1 0 0 -1 0 0 -1 0 
0 -1 0 0 -1 0 0 -1 0 
0 -1 0 0 -1 0 0 -1 0 
0 -1 0 0 -1 0 0 -1 0 
0 -1 0 0 -1 0 0 -1 0 
0 -1 0 0 -1 0 0 -1 0 
0 -1 0 0 -1 0 0 -1 0 
0 -1 0 0 -1 0 0 -1 0 
0 -1 0 0 -1 0 0 -1 0 
0 -1 0 0 -1 0 0 -1 0 
0 -1 0 0 -1 0 0 1 0 
0 1 0 0 1 0 0 1 0 
0 1 0 0 1 0 0 1 0 
0 1 0 0 1 0 0 1 0 
0 1 0 0 1 0 0 1 0 
0 1 0 0 1 0 0 1 0 
0 1 0 0 1 0 0 1 0 
0 1 0 0 1 0 0 1 0 
0 1 0 0 1 0 0 1 0 
0 1 0 0 1 0 0 1 0 
0 1 0 0 1 0 0 1 0 
0 1 0 0 1 0 0 1 0 
0 1 0 0 1 0 0 1 0 
0 1 0 0 1 0 0 1 0 
0 1 0 0 1 0 0 1 0 
0 1 0 0 1 0 0 1 0 
0 1 0 0 1 0 0 1 0 
0 1 0 0 1 0 0 1 0 
0 1 0 0 1 0 0 1 0 
0 1 0 0 1 0 0 1 0 
0 1 0 0 1 0 0 1 0 
0 1 0 0 1 0 0 1 0 
0 1 0 0 1 0 0 1 0 
0 1 0 0 1 0 0 1 0 
0 1 0 0 1 0 0 1 0 
0 1 0 0 1 0 0 1 0 
0 1 0 0 1 0 0 1 0 
0 1 0 0 1 0 0 1 0 
0 1 0 0 1 0 0 1 0 
0 1 0 0 1 0 0 1 0 
0 1 0 0 1 0 0 1 0 
0 1 0 0 1 0 0 1 0 
0 1 0 0 1 0 0 1 0 
0 1 0 0 1 0 0 1 0 
0 1 0 0 1 0 0 1 0 
0 1 0 0 1 0 0 1 0 
0 1 0 0 1 0 0 1 0 
0 1 0 0 1 0 0 1 0 
0 1 0 0 1 0 0 0 -1 
0 0 -1 0 0 -1 0 0 -1 
0 0 -1 0 0 -1 0 0 -1 
0 0 -1 0 0 -1 0 0 -1 
0 0 -1 0 0 -1 0 0 -1 
0 0 -1 0 0 -1 0 0 -1 
0 0 -1 0 0 -1 0 0 -1 
0 0 -1 0 0 -1 0 0 -1 
0 0 -1 0 0 -1 0 0 -1 
0 0 -1 0 0 -1 0 0 -1 
0 0 -1 0 0 -1 0 0 -1 
0 0 -1 0 0 -1 0 0 -1 
0 0 -1 0 0 -1 0 0 -1 
0 0 -1 0 0 -1 0 0 -1 
0 0 -1 0 0 -1 0 0 -1 
0 0 -1 0 0 -1 0 0 -1 
0 0 -1 0 0 -1 0 0 -1 
0 0 -1 0 0 -1 0 0 -1 
0 0 -1 0 0 -1 0 0 -1 
0 0 -1 0 0 -1 0 0 -1 
0 0 -1 0 0 -1 0 0 -1 
0 0 -1 0 0 -1 0 0 -1 
0 0 -1 0 0 -1 0 0 -1 
0 0 -1 0 0 -1 0 0 -1 
0 0 -1 0 0 -1 0 0 -1 
0 0 -1 0 0 -1 0 0 -1 
0 0 -1 0 0 -1 0 0 -1 
0 0 -1 0 0 -1 0 0 -1 
0 0 -1 0 0 -1 0 0 -1 
0 0 -1 0 0 -1 0 0 -1 
0 0 -1 0 0 -1 0 0 -1 
0 0 -1 0 0 -1 0 0 -1 
0 0 -1 0 0 -1 0 0 -1 
0 0 -1 0 0 1 0 0 1 
0 0 1 0 0 1 0 0 1 
0 0 1 0 0 1 0 0 1 
0 0 1 0 0 1 0 0 1 
0 0 1 0 0 1 0 0 1 
0 0 1 0 0 1 0 0 1 
0 0 1 0 0 1 0 0 1 
0 0 1 0 0 1 0 0 1 
0 0 1 0 0 1 0 0 1 
0 0 1 0 0 1 0 0 1 
0 0 1 0 0 1 0 0 1 
0 0 1 0 0 1 0 0 1 
0 0 1 0 0 1 0 0 1 
0 0 1 0 0 1 0 0 1 
0 0 1 0 0 1 0 0 1 
0 0 1 0 0 1 0 0 1 
0 0 1 0 0 1 0 0 1 
0 0 1 0 0 1 0 0 1 
0 0 1 0 0 1 0 0 1 
0 0 1 0 0 1 0 0 1 
0 0 1 0 0 1 0 0 1 
0 0 1 0 0 1 0 0 1 
0 0 1 0 0 1 0 0 1 
0 0 1 0 0 1 0 0 1 
0 0 1 0 0 1 0 0 1 
0 0 1 0 0 1 0 0 1 
0 0 1 0 0 1 0 0 1 
0 0 1 0 0 1 0 0 1 
0 0 1 0 0 1 0 0 1 
0 0 1 0 0 1 0 0 1 
0 0 1 0 0 1 0 0 1 
0 0 1 0 0 1 0 0 1 
0 0 1 0 0 1 0 0 1 
0 0 1 0 0 1 0 0 1 

FIELD FieldData 1
Colors 3 699 unsigned_char
218 142 84 220 160 98 202 137 81 
187 114 63 129 60 19 178 107 65 
206 125 70 160 82 33 218 142 84 
218 142 84 220 160 98 220 160 98 
202 137 81 202 137 81 187 114 63 
187 114 63 129 60 19 129 60 19 
178 107 65 178 107 65 206 125 70 
206 125 70 160 82 33 160 82 33 
214 148 90 194 120 75 179 108 64 
185 119 71 177 107 58 167 103 55 
212 151 97 203 141 84 208 147 92 
226 155 111 198 128 69 198 126 78 
178 111 58 229 162 110 233 163 111 
200 124 64 191 110 57 199 116 50 
176 104 45 202 132 70 205 127 78 
197 126 74 180 112 63 196 123 70 
177 105 55 194 123 69 176 102 55 
147 74 21 194 119 64 178 106 56 
195 129 71 195 125 66 183 117 82 
222 145 99 199 134 80 218 142 90 
176 103 48 169 95 46 160 84 32 
211 140 88 152 75 23 212 140 82 
180 110 51 151 78 25 226 151 94 
198 126 76 202 134 85 214 145 90 
209 143 93 211 139 89 212 146 94 
211 150 96 232 164 103 198 125 72 
194 126 65 212 140 81 193 121 71 
176 103 58 176 113 60 180 109 57 
198 124 79 211 149 92 151 74 32 
210 146 100 217 144 93 199 132 77 
190 129 66 225 154 102 235 158 106 
205 136 79 190 125 67 214 134 81 
202 132 73 200 134 73 215 144 98 
224 158 108 170 95 38 210 142 93 
192 123 66 158 86 36 177 98 39 
201 135 75 206 132 67 189 118 76 
196 119 73 189 119 70 212 142 82 
203 134 75 228 155 102 216 140 78 
181 108 57 187 121 63 185 111 50 
190 122 57 200 131 72 201 123 74 
212 136 86 148 74 27 212 137 80 
186 115 63 202 135 83 211 137 74 
207 136 92 205 127 63 219 152 109 
219 149 87 228 160 111 193 122 66 
228 158 109 204 139 85 184 121 67 
220 159 105 201 128 85 170 101 46 
177 105 57 188 116 66 184 107 63 
147 72 32 198 126 68 214 145 88 
205 125 62 212 141 85 203 131 81 
205 134 70 175 101 54 167 100 48 
167 101 49 203 130 85 197 120 74 
204 133 79 193 117 68 174 101 58 
187 115 67 163 89 52 167 91 41 
190 114 62 183 107 57 187 110 66 
171 94 40 198 116 66 200 120 69 
182 103 47 161 80 27 216 144 85 
211 141 79 138 56 8 170 93 41 
202 131 79 191 112 53 191 121 61 
197 123 86 219 145 106 231 157 118 
203 136 91 196 128 81 169 98 54 
127 57 31 203 124 91 162 94 49 
145 72 31 166 85 40 152 69 29 
179 106 53 166 84 44 161 90 38 
135 65 31 121 50 20 128 48 11 
144 62 25 161 80 35 181 102 59 
190 119 63 154 73 30 159 79 42 
164 86 47 154 76 38 170 88 38 
145 60 21 201 126 68 203 127 75 
176 94 47 166 97 42 157 84 41 
129 67 30 170 97 62 180 105 63 
181 106 66 206 123 69 146 68 29 
122 48 21 160 79 36 128 60 21 
154 72 34 134 54 17 177 106 52 
172 101 59 142 69 26 156 81 41 
147 68 25 178 104 43 191 112 56 
120 46 21 146 75 33 144 59 28 
155 80 41 158 75 33 171 88 44 
148 79 37 173 101 53 156 72 38 
137 60 18 176 95 40 182 104 68 
147 72 40 125 54 24 156 74 36 
152 70 32 148 69 30 162 88 39 
163 80 36 161 80 33 178 101 45 
149 78 32 191 119 69 165 85 36 
170 93 39 167 94 43 165 87 39 
162 84 38 187 113 66 144 70 33 
163 85 37 158 74 38 168 85 43 
165 88 42 164 82 45 153 80 29 
172 100 42 155 82 37 151 75 43 
169 90 49 175 102 47 201 128 75 
170 87 43 187 109 60 180 101 45 
148 74 39 168 92 43 154 79 39 
168 85 43 163 81 34 204 133 81 
211 140 84 191 115 63 183 109 72 
186 114 66 157 82 42 198 124 77 
162 94 49 203 124 91 127 57 31 
169 98 54 196 128 81 203 136 91 
231 157 118 219 145 106 197 123 86 
200 127 74 195 125 65 181 112 55 
184 114 65 192 124 75 234 164 113 
173 109 65 208 147 92 203 141 84 
212 151 97 167 103 55 177 107 58 
185 119 71 179 108 64 194 120 75 
214 148 90 204 135 80 205 144 97 
184 116 69 180 106 67 193 123 72 
204 136 87 197 116 87 198 133 79 
179 107 57 214 140 91 224 154 105 
195 129 77 138 66 26 185 120 82 
159 85 40 198 127 95 140 72 23 
231 166 112 157 86 42 207 128 85 
197 127 76 202 129 86 183 117 65 
151 77 30 210 140 88 192 116 67 
183 109 60 194 122 74 186 116 82 
191 128 77 175 105 54 176 106 57 
173 103 52 212 139 96 200 121 80 
181 113 66 202 136 84 190 120 68 
191 120 74 164 91 58 215 152 98 
174 101 56 169 98 66 173 97 61 
186 109 65 172 105 62 219 147 99 
186 115 73 192 129 76 214 144 93 
190 119 89 204 131 76 199 123 89 
189 121 82 221 152 97 204 131 99 
151 75 39 177 102 60 208 141 98 
153 80 37 206 142 94 212 144 107 
197 135 88 189 125 90 227 163 115 
172 108 70 194 133 88 180 109 67 
198 130 91 219 152 109 187 111 79 
210 139 95 181 106 64 214 141 98 
221 160 116 204 128 79 211 147 101 
200 127 82 175 101 62 177 105 55 
196 123 70 180 112 63 197 126 74 
205 127 78 202 132 70 176 104 45 
199 116 50 191 110 57 222 159 108 
186 117 62 196 136 76 207 132 74 
207 133 72 188 117 53 218 150 89 
161 80 27 182 103 47 200 120 69 
198 116 66 171 94 40 187 110 66 
183 107 57 190 114 62 167 91 41 
174 103 59 172 100 50 195 121 76 
201 130 88 168 101 49 155 85 36 
194 122 72 178 104 55 195 128 76 
182 104 40 168 90 44 174 101 50 
148 77 33 159 88 46 195 112 62 
185 105 56 180 100 47 184 108 59 
175 104 48 197 126 72 170 98 50 
210 130 79 188 107 54 197 117 68 
185 103 56 149 80 38 183 105 56 
153 76 30 203 128 71 171 104 62 
192 117 75 170 97 46 161 88 45 
197 120 64 202 121 65 199 129 80 
169 92 36 194 111 67 185 103 53 
148 74 35 151 73 34 190 118 70 
197 124 71 147 69 31 170 96 49 
168 88 37 186 111 54 193 120 69 
165 89 37 188 107 60 176 94 38 
200 122 74 189 110 54 192 114 52 
174 101 50 191 114 68 172 95 53 
188 108 47 177 101 49 187 108 52 
188 118 67 175 92 38 175 97 59 
205 132 81 186 105 58 184 108 50 
175 99 39 176 99 43 184 110 49 
182 105 61 173 94 38 164 82 32 
181 104 52 154 76 28 172 92 39 
174 101 58 199 122 68 161 87 42 
186 112 63 171 98 45 194 124 65 
180 108 49 153 80 27 192 116 64 
168 86 36 158 84 35 161 78 28 
167 92 50 196 116 63 195 125 66 
195 129 71 178 106 56 194 119 64 
147 74 21 176 102 55 194 123 69 
194 122 72 155 85 36 168 101 49 
201 130 88 195 121 76 172 100 50 
174 103 59 163 89 52 187 115 67 
174 101 58 193 117 68 204 133 79 
197 120 74 203 130 85 198 124 77 
157 82 42 186 114 66 183 109 72 
191 115 63 211 140 84 204 133 81 
184 109 51 182 103 60 152 72 23 
211 138 93 146 68 30 144 75 34 
217 143 96 182 112 61 146 72 33 
185 113 63 174 100 55 179 106 65 
175 109 61 204 133 77 176 99 57 
193 121 62 157 89 40 181 110 64 
203 132 80 188 115 64 191 121 61 
159 87 37 196 128 81 195 120 81 
186 117 75 167 95 45 191 119 61 
130 55 16 162 84 36 225 155 103 
152 79 46 185 112 69 182 108 59 
196 122 77 177 104 59 143 77 42 
180 107 62 157 83 44 182 108 63 
147 78 36 153 75 29 197 120 64 
177 104 63 196 123 70 174 99 59 
212 136 86 180 107 62 148 70 31 
199 125 86 180 110 51 170 97 52 
174 101 48 170 95 53 174 96 48 
197 120 64 154 76 28 185 115 64 
147 69 30 202 126 74 203 134 69 
209 131 82 155 74 29 181 107 62 
186 109 63 137 64 23 186 112 67 
232 164 119 205 132 89 187 114 71 
200 126 79 173 109 65 234 164 113 
192 124 75 184 114 65 181 112 55 
195 125 65 200 127 74 191 121 61 
191 112 53 202 131 79 170 93 41 
138 56 8 211 141 79 216 144 85 
218 150 89 188 117 53 207 133 72 
207 132 74 196 136 76 186 117 62 
222 159 108 200 124 64 233 163 111 
229 162 110 178 111 58 198 126 78 
198 128 69 226 155 111 156 79 27 
215 143 85 204 133 77 211 139 91 
204 131 78 215 144 98 203 136 81 
221 151 91 215 145 94 206 138 77 
195 119 69 210 145 87 221 145 95 
192 122 63 214 143 91 215 145 86 
217 147 95 241 174 121 192 121 65 
198 128 69 225 155 103 209 140 75 
176 100 51 219 159 97 180 109 57 
212 139 86 214 140 77 159 84 27 
203 120 70 207 134 79 199 127 69 
152 80 32 173 101 61 158 81 35 
206 135 79 206 136 84 189 116 61 
180 111 54 181 111 59 159 88 36 
214 149 93 214 144 93 200 125 68 
193 117 65 177 103 40 224 156 93 
160 82 34 179 112 59 199 123 74 
217 148 91 199 126 73 181 112 55 
162 86 50 201 139 78 151 75 25 
200 126 81 194 124 73 195 124 68 
226 155 91 208 132 83 205 133 75 
206 131 74 212 135 89 193 119 58 
194 134 74 191 121 69 182 119 66 
192 114 65 207 138 79 170 93 47 
205 136 77 153 79 32 203 140 86 

