# vtk DataFile Version 3.0
vtk output
ASCII
DATASET POLYDATA
POINTS 494 float
0.5 0.2 0.3 0.5 0.2 -0.2 0.5 0.00865828 -0.16194 
0.85 0.2 -0.2 0.85 0.00865828 -0.16194 0.85 0.2 0.3 
0.5 -0.153553 -0.0535534 0.85 -0.153553 -0.0535534 0.5 -0.26194 0.108658 
0.85 -0.26194 0.108658 0.5 -0.3 0.3 0.85 -0.3 0.3 
0.5 -0.26194 0.491342 0.85 -0.26194 0.491342 0.5 -0.153553 0.653553 
0.85 -0.153553 0.653553 0.5 0.00865828 0.76194 0.85 0.00865828 0.76194 
0.5 0.2 0.8 0.85 0.2 0.8 0.5 0.391342 0.76194 
0.85 0.391342 0.76194 0.5 0.553553 0.653553 0.85 0.553553 0.653553 
0.5 0.66194 0.491342 0.85 0.66194 0.491342 0.5 0.7 0.3 
0.85 0.7 0.3 0.5 0.66194 0.108658 0.85 0.66194 0.108658 
0.5 0.553553 -0.0535534 0.85 0.553553 -0.0535534 0.5 0.391342 -0.16194 
0.85 0.391342 -0.16194 0.5 0.2 -0.2 0.5 0.00865828 -0.16194 
0.85 0.2 -0.2 0.85 0.00865828 -0.16194 0.5 -0.153553 -0.0535534 
0.85 -0.153553 -0.0535534 0.5 -0.26194 0.108658 0.85 -0.26194 0.108658 
0.5 -0.3 0.3 0.85 -0.3 0.3 0.5 -0.26194 0.491342 
0.85 -0.26194 0.491342 0.5 -0.153553 0.653553 0.85 -0.153553 0.653553 
0.5 0.00865828 0.76194 0.85 0.00865828 0.76194 0.5 0.2 0.8 
0.85 0.2 0.8 0.5 0.391342 0.76194 0.85 0.391342 0.76194 
0.5 0.553553 0.653553 0.85 0.553553 0.653553 0.5 0.66194 0.491342 
0.85 0.66194 0.491342 0.5 0.7 0.3 0.85 0.7 0.3 
0.5 0.66194 0.108658 0.85 0.66194 0.108658 0.5 0.553553 -0.0535534 
0.85 0.553553 -0.0535534 0.5 0.391342 -0.16194 0.85 0.391342 -0.16194 
0.5 0.2 0.216667 0.5 0.2 0.133333 0.5 0.2 0.05 
0.5 0.2 -0.0333333 0.5 0.2 -0.116667 0.5 0.104329 -0.18097 
0.5 0.0405486 -0.08495 0.5 0.0724389 -0.00795999 0.5 0.104329 0.06903 
0.5 0.136219 0.14602 0.5 0.16811 0.22301 0.5 0.125408 -0.075 
0.5 0.141984 0.00833323 0.7625 0.00865828 -0.16194 0.675 0.00865828 -0.16194 
0.5875 0.00865828 -0.16194 0.5 0.104329 -0.18097 0.57 0.161732 -0.192388 
0.64 0.123463 -0.184776 0.71 0.085195 -0.177164 0.78 0.0469266 -0.169552 
0.63125 0.0583627 -0.171827 0.569646 0.0923894 -0.178595 0.5875 0.2 -0.2 
0.675 0.2 -0.2 0.7625 0.2 -0.2 0.85 0.104329 -0.18097 
0.71875 0.150296 -0.190113 0.780354 0.116269 -0.183345 0.85 0.16811 0.22301 
0.85 0.136219 0.14602 0.85 0.104329 0.06903 0.85 0.0724389 -0.00795999 
0.85 0.0405486 -0.08495 0.85 0.104329 -0.18097 0.85 0.2 -0.116667 
0.85 0.2 -0.0333333 0.85 0.2 0.05 0.85 0.2 0.133333 
0.85 0.2 0.216667 0.85 0.125408 -0.0750001 0.85 0.141984 0.00833323 
0.5 -0.0724474 -0.107747 0.5 -0.0828424 0.0171573 0.5 -0.0121318 0.087868 
0.5 0.0585788 0.158579 0.5 0.129289 0.229289 0.5 -0.00906726 -0.0192988 
0.7625 -0.153553 -0.0535534 0.675 -0.153553 -0.0535534 0.5875 -0.153553 -0.0535534 
0.5 -0.0724474 -0.107747 0.57 -0.023784 -0.140263 0.64 -0.0562262 -0.118585 
0.71 -0.0886685 -0.096908 0.78 -0.121111 -0.0752307 0.63125 -0.111416 -0.0817087 
0.569646 -0.0825694 -0.100983 0.85 -0.0724474 -0.107747 0.71875 -0.033479 -0.133785 
0.780354 -0.0623253 -0.11451 0.85 0.129289 0.229289 0.85 0.0585788 0.158579 
0.85 -0.0121318 0.087868 0.85 -0.0828424 0.0171573 0.85 -0.0724474 -0.107747 
0.85 -0.00906726 -0.0192988 0.5 -0.207747 0.0275523 0.5 -0.18495 0.140548 
0.5 -0.10796 0.172439 0.5 -0.03097 0.204329 0.5 0.04602 0.236219 
0.5 0.12301 0.26811 0.5 -0.119299 0.0909324 0.7625 -0.26194 0.108658 
0.675 -0.26194 0.108658 0.5875 -0.26194 0.108658 0.5 -0.207747 0.0275523 
0.57 -0.17523 -0.0211111 0.64 -0.196908 0.0113312 0.71 -0.218585 0.0437734 
0.78 -0.240263 0.0762157 0.63125 -0.233785 0.0665207 0.569646 -0.21451 0.0376743 
0.85 -0.207747 0.0275523 0.71875 -0.181708 -0.0114161 0.780354 -0.200983 0.0174303 
0.85 0.12301 0.26811 0.85 0.04602 0.236219 0.85 -0.03097 0.204329 
0.85 -0.10796 0.172439 0.85 -0.18495 0.140548 0.85 -0.207747 0.0275523 
0.85 -0.119299 0.0909324 0.5 -0.28097 0.204329 0.5 -0.216667 0.3 
0.5 -0.133333 0.3 0.5 -0.05 0.3 0.5 0.0333333 0.3 
0.5 0.116667 0.3 0.5 -0.175 0.225408 0.5 -0.0916668 0.241984 
0.7625 -0.3 0.3 0.675 -0.3 0.3 0.5875 -0.3 0.3 
0.5 -0.28097 0.204329 0.57 -0.269552 0.146926 0.64 -0.277164 0.185195 
0.71 -0.284776 0.223463 0.78 -0.292388 0.261732 0.63125 -0.290113 0.250296 
0.569646 -0.283345 0.216269 0.85 -0.28097 0.204329 0.71875 -0.271827 0.158362 
0.780354 -0.278595 0.192389 0.85 0.116667 0.3 0.85 0.0333333 0.3 
0.85 -0.05 0.3 0.85 -0.133333 0.3 0.85 -0.216667 0.3 
0.85 -0.28097 0.204329 0.85 -0.175 0.225408 0.85 -0.0916668 0.241984 
0.5 -0.28097 0.395671 0.5 -0.18495 0.459452 0.5 -0.10796 0.427561 
0.5 -0.03097 0.395671 0.5 0.04602 0.363781 0.5 0.12301 0.33189 
0.5 -0.175 0.374592 0.5 -0.0916668 0.358016 0.7625 -0.26194 0.491342 
0.675 -0.26194 0.491342 0.5875 -0.26194 0.491342 0.5 -0.28097 0.395671 
0.57 -0.292388 0.338268 0.64 -0.284776 0.376537 0.71 -0.277164 0.414805 
0.78 -0.269552 0.453074 0.63125 -0.271827 0.441638 0.569646 -0.278595 0.407611 
0.85 -0.28097 0.395671 0.71875 -0.290113 0.349705 0.780354 -0.283345 0.383731 
0.85 0.12301 0.33189 0.85 0.04602 0.363781 0.85 -0.03097 0.395671 
0.85 -0.10796 0.427561 0.85 -0.18495 0.459452 0.85 -0.28097 0.395671 
0.85 -0.175 0.374592 0.85 -0.0916668 0.358016 0.5 -0.207747 0.572448 
0.5 -0.0828424 0.582842 0.5 -0.0121318 0.512132 0.5 0.0585788 0.441421 
0.5 0.129289 0.370711 0.5 -0.119299 0.509067 0.7625 -0.153553 0.653553 
0.675 -0.153553 0.653553 0.5875 -0.153553 0.653553 0.5 -0.207747 0.572448 
0.57 -0.240263 0.523784 0.64 -0.218585 0.556226 0.71 -0.196908 0.588669 
0.78 -0.17523 0.621111 0.63125 -0.181708 0.611416 0.569646 -0.200983 0.58257 
0.85 -0.207747 0.572448 0.71875 -0.233785 0.533479 0.780354 -0.21451 0.562325 
0.85 0.129289 0.370711 0.85 0.0585788 0.441421 0.85 -0.0121318 0.512132 
0.85 -0.0828424 0.582842 0.85 -0.207747 0.572448 0.85 -0.119299 0.509067 
0.5 -0.0724474 0.707747 0.5 0.0405486 0.68495 0.5 0.0724389 0.60796 
0.5 0.104329 0.53097 0.5 0.136219 0.45398 0.5 0.16811 0.37699 
0.5 -0.00906733 0.619299 0.7625 0.00865828 0.76194 0.675 0.00865828 0.76194 
0.5875 0.00865828 0.76194 0.5 -0.0724474 0.707747 0.57 -0.121111 0.67523 
0.64 -0.0886685 0.696908 0.71 -0.0562262 0.718585 0.78 -0.023784 0.740263 
0.63125 -0.033479 0.733785 0.569646 -0.0623254 0.71451 0.85 -0.0724474 0.707747 
0.71875 -0.111416 0.681708 0.780354 -0.0825693 0.700983 0.85 0.16811 0.37699 
0.85 0.136219 0.45398 0.85 0.104329 0.53097 0.85 0.0724389 0.60796 
0.85 0.0405486 0.68495 0.85 -0.0724474 0.707747 0.85 -0.00906733 0.619299 
0.5 0.104329 0.78097 0.5 0.2 0.7 0.5 0.2 0.6 
0.5 0.2 0.5 0.5 0.2 0.4 0.5 0.122055 0.673611 
0.7625 0.2 0.8 0.675 0.2 0.8 0.5875 0.2 0.8 
0.5 0.104329 0.78097 0.57 0.0469266 0.769552 0.64 0.085195 0.777164 
0.71 0.123463 0.784776 0.78 0.161732 0.792388 0.63125 0.150296 0.790113 
0.569646 0.116269 0.783345 0.85 0.104329 0.78097 0.71875 0.0583627 0.771827 
0.780354 0.0923894 0.778595 0.85 0.2 0.4 0.85 0.2 0.5 
0.85 0.2 0.6 0.85 0.2 0.7 0.85 0.104329 0.78097 
0.85 0.122055 0.673611 0.5 0.295671 0.78097 0.5 0.359452 0.68495 
0.5 0.327561 0.60796 0.5 0.295671 0.53097 0.5 0.263781 0.45398 
0.5 0.23189 0.37699 0.5 0.277945 0.673611 0.7625 0.391342 0.76194 
0.675 0.391342 0.76194 0.5875 0.391342 0.76194 0.5 0.295671 0.78097 
0.57 0.238268 0.792388 0.64 0.276537 0.784776 0.71 0.314805 0.777164 
0.78 0.353074 0.769552 0.63125 0.341638 0.771827 0.569646 0.307611 0.778595 
0.85 0.295671 0.78097 0.71875 0.249704 0.790113 0.780354 0.283731 0.783345 
0.85 0.23189 0.37699 0.85 0.263781 0.45398 0.85 0.295671 0.53097 
0.85 0.327561 0.60796 0.85 0.359452 0.68495 0.85 0.295671 0.78097 
0.85 0.277945 0.673611 0.5 0.472448 0.707747 0.5 0.482842 0.582842 
0.5 0.412132 0.512132 0.5 0.341421 0.441421 0.5 0.270711 0.370711 
0.5 0.409067 0.619299 0.7625 0.553553 0.653553 0.675 0.553553 0.653553 
0.5875 0.553553 0.653553 0.5 0.472448 0.707747 0.57 0.423784 0.740263 
0.64 0.456226 0.718585 0.71 0.488669 0.696908 0.78 0.521111 0.67523 
0.63125 0.511416 0.681708 0.569646 0.48257 0.700983 0.85 0.472448 0.707747 
0.71875 0.433479 0.733785 0.780354 0.462325 0.71451 0.85 0.270711 0.370711 
0.85 0.341421 0.441421 0.85 0.412132 0.512132 0.85 0.482842 0.582842 
0.85 0.472448 0.707747 0.85 0.409067 0.619299 0.5 0.607746 0.572448 
0.5 0.58495 0.459452 0.5 0.50796 0.427561 0.5 0.43097 0.395671 
0.5 0.35398 0.363781 0.5 0.27699 0.33189 0.5 0.519299 0.509067 
0.7625 0.66194 0.491342 0.675 0.66194 0.491342 0.5875 0.66194 0.491342 
0.5 0.607746 0.572448 0.57 0.57523 0.621111 0.64 0.596908 0.588669 
0.71 0.618585 0.556226 0.78 0.640263 0.523784 0.63125 0.633785 0.533479 
0.569646 0.61451 0.562325 0.85 0.607746 0.572448 0.71875 0.581708 0.611416 
0.780354 0.600983 0.58257 0.85 0.27699 0.33189 0.85 0.35398 0.363781 
0.85 0.43097 0.395671 0.85 0.50796 0.427561 0.85 0.58495 0.459452 
0.85 0.607746 0.572448 0.85 0.519299 0.509067 0.5 0.68097 0.395671 
0.5 0.6 0.3 0.5 0.5 0.3 0.5 0.4 0.3 
0.5 0.3 0.3 0.5 0.573611 0.377945 0.7625 0.7 0.3 
0.675 0.7 0.3 0.5875 0.7 0.3 0.5 0.68097 0.395671 
0.57 0.669552 0.453074 0.64 0.677164 0.414805 0.71 0.684776 0.376537 
0.78 0.692388 0.338268 0.63125 0.690113 0.349705 0.569646 0.683345 0.383731 
0.85 0.68097 0.395671 0.71875 0.671827 0.441638 0.780354 0.678595 0.407611 
0.85 0.3 0.3 0.85 0.4 0.3 0.85 0.5 0.3 
0.85 0.6 0.3 0.85 0.68097 0.395671 0.85 0.573611 0.377945 
0.5 0.68097 0.204329 0.5 0.58495 0.140548 0.5 0.50796 0.172439 
0.5 0.43097 0.204329 0.5 0.35398 0.236219 0.5 0.27699 0.26811 
0.5 0.573611 0.222055 0.7625 0.66194 0.108658 0.675 0.66194 0.108658 
0.5875 0.66194 0.108658 0.5 0.68097 0.204329 0.57 0.692388 0.261732 
0.64 0.684776 0.223463 0.71 0.677164 0.185195 0.78 0.669552 0.146926 
0.63125 0.671827 0.158362 0.569646 0.678595 0.192389 0.85 0.68097 0.204329 
0.71875 0.690113 0.250296 0.780354 0.683345 0.216269 0.85 0.27699 0.26811 
0.85 0.35398 0.236219 0.85 0.43097 0.204329 0.85 0.50796 0.172439 
0.85 0.58495 0.140548 0.85 0.68097 0.204329 0.85 0.573611 0.222055 
0.5 0.607746 0.0275523 0.5 0.482842 0.0171573 0.5 0.412132 0.087868 
0.5 0.341421 0.158579 0.5 0.270711 0.229289 0.5 0.519299 0.0909324 
0.7625 0.553553 -0.0535534 0.675 0.553553 -0.0535534 0.5875 0.553553 -0.0535534 
0.5 0.607746 0.0275523 0.57 0.640263 0.0762157 0.64 0.618585 0.0437734 
[...]
POINT_DATA 494
NORMALS Normals float
-1 0 0 -1 0 0 -1 0 0 
-1.66022e-08 -1.36738e-07 -1 -8.36312e-09 -0.382684 -0.923879 1 0 0 
-1 0 0 -2.61362e-08 -0.707106 -0.707107 -1 0 0 
3.01096e-08 -0.923879 -0.382684 -1 0 0 -1.6885e-08 -1 1.02553e-07 
-1 0 0 -1.1073e-07 -0.923879 0.382685 -1 0 0 
-4.38383e-08 -0.707107 0.707107 -1 0 0 2.63017e-07 -0.382685 0.923879 
-1 0 0 1.05717e-07 -2.65879e-08 1 -1 0 0 
9.05522e-09 0.382685 0.923879 -1 0 0 -1.95214e-07 0.707107 0.707107 
-1 0 0 2.16805e-07 0.923879 0.382685 -1 0 0 
1.29957e-07 1 -9.49568e-08 -1 0 0 4.07772e-08 0.923879 -0.382684 
-1 0 0 -7.65869e-08 0.707107 -0.707107 -1 0 0 
-2.96498e-08 0.382684 -0.923879 3.02142e-08 -1.59527e-07 -1 -4.56838e-09 -0.382684 -0.923879 
1 0 0 1 0 0 1.59029e-08 -0.707106 -0.707107 
1 0 0 6.22931e-08 -0.923879 -0.382684 1 0 0 
1.6885e-08 -1 -9.87551e-08 1 0 0 -3.29447e-08 -0.923879 0.382685 
1 0 0 1.4735e-07 -0.707106 0.707107 1 0 0 
1.95542e-08 -0.382684 0.923879 1 0 0 -7.11599e-08 -3.03862e-07 1 
1 0 0 -1.8063e-07 0.382685 0.923879 1 0 0 
1.95214e-07 0.707107 0.707107 1 0 0 2.28094e-08 0.923879 0.382685 
1 0 0 -1.19317e-07 1 9.87551e-08 1 0 0 
-2.1397e-07 0.923879 -0.382684 1 0 0 8.91493e-08 0.707107 -0.707107 
1 0 0 2.42626e-09 0.382684 -0.923879 1 0 0 
-1 0 0 -1 0 0 -1 0 0 
-1 0 0 -1 0 0 -1 0 0 
-1 0 0 -1 0 0 -1 0 0 
-1 0 0 -1 0 0 -1 0 0 
-1 0 0 7.54793e-09 -0.382684 -0.923879 -1.77234e-08 -0.382684 -0.923879 
1.79069e-08 -0.382684 -0.923879 2.25627e-08 -0.195089 -0.980785 2.00992e-08 -0.195089 -0.980785 
-3.37319e-08 -0.195089 -0.980785 -2.83098e-08 -0.195089 -0.980785 2.20428e-08 -0.195089 -0.980785 
-2.35647e-08 -0.195089 -0.980785 3.10347e-08 -0.195089 -0.980785 1.1369e-08 -1.41802e-07 -1 
-2.63605e-08 -1.06352e-07 -1 1.38436e-08 -1.13948e-07 -1 4.87193e-09 -0.195089 -0.980785 
-1.6395e-08 -0.195089 -0.980785 2.90375e-08 -0.195089 -0.980785 1 0 0 
1 0 0 1 0 0 1 0 0 
1 0 0 1 0 0 1 0 0 
1 0 0 1 0 0 1 0 0 
1 0 0 1 0 0 1 0 0 
-1 0 0 -1 0 0 -1 0 0 
-1 0 0 -1 0 0 -1 0 0 
-1.02548e-09 -0.707106 -0.707107 3.31127e-09 -0.707106 -0.707107 7.93592e-09 -0.707106 -0.707107 
3.57684e-08 -0.555572 -0.831468 1.62063e-08 -0.555572 -0.831468 4.11186e-09 -0.555572 -0.831468 
2.97837e-09 -0.555572 -0.831468 -1.6812e-08 -0.555572 -0.831468 -4.68519e-09 -0.555572 -0.831468 
2.27695e-08 -0.555572 -0.831468 -5.80839e-08 -0.555572 -0.831468 1.55047e-08 -0.555572 -0.831468 
-1.0696e-08 -0.555572 -0.831468 1 0 0 1 0 0 
1 0 0 1 0 0 1 0 0 
1 0 0 -1 0 0 -1 0 0 
-1 0 0 -1 0 0 -1 0 0 
-1 0 0 -1 0 0 -2.14284e-09 -0.923879 -0.382684 
5.38673e-09 -0.923879 -0.382684 -6.14331e-08 -0.923879 -0.382684 5.59807e-08 -0.831468 -0.555573 
8.12683e-09 -0.831468 -0.555573 2.46538e-08 -0.831468 -0.555573 2.27798e-08 -0.831468 -0.555573 
-4.68952e-08 -0.831468 -0.555573 2.09255e-08 -0.831468 -0.555573 6.45913e-09 -0.831468 -0.555573 
-7.87652e-08 -0.831468 -0.555573 1.59343e-08 -0.831468 -0.555573 -5.07245e-08 -0.831468 -0.555573 
1 0 0 1 0 0 1 0 0 
1 0 0 1 0 0 1 0 0 
1 0 0 -1 0 0 -1 0 0 
-1 0 0 -1 0 0 -1 0 0 
-1 0 0 -1 0 0 -1 0 0 
-3.79364e-08 -1 1.21545e-07 0 -1 -2.53218e-09 3.79364e-08 -1 -1.26609e-07 
1.82453e-07 -0.980786 -0.195089 -5.28398e-08 -0.980786 -0.195089 -1.09412e-07 -0.980786 -0.195089 
-8.77278e-08 -0.980786 -0.195089 -3.62512e-08 -0.980786 -0.195089 -5.13701e-08 -0.980786 -0.195089 
-2.68995e-08 -0.980786 -0.195089 1.72411e-07 -0.980786 -0.195089 -3.62341e-08 -0.980786 -0.195089 
-8.2521e-09 -0.980786 -0.195089 1 0 0 1 0 0 
1 0 0 1 0 0 1 0 0 
1 0 0 1 0 0 1 0 0 
-1 0 0 -1 0 0 -1 0 0 
-1 0 0 -1 0 0 -1 0 0 
-1 0 0 -1 0 0 2.37314e-08 -0.923879 0.382685 
4.02934e-08 -0.923879 0.382685 7.53853e-09 -0.923879 0.382685 -1.74147e-07 -0.980786 0.195089 
3.62512e-08 -0.980786 0.195089 9.5279e-08 -0.980786 0.195089 9.5279e-08 -0.980786 0.195089 
3.62512e-08 -0.980786 0.195089 4.99671e-08 -0.980786 0.195089 1.61705e-08 -0.980786 0.195089 
-1.74147e-07 -0.980786 0.195089 4.99671e-08 -0.980786 0.195089 1.61705e-08 -0.980786 0.195089 
1 0 0 1 0 0 1 0 0 
1 0 0 1 0 0 1 0 0 
1 0 0 1 0 0 -1 0 0 
-1 0 0 -1 0 0 -1 0 0 
-1 0 0 -1 0 0 2.2997e-08 -0.707107 0.707107 
3.0295e-08 -0.707106 0.707107 -1.2603e-07 -0.707106 0.707107 2.15346e-07 -0.831467 0.555574 
5.82435e-08 -0.831467 0.555574 6.23523e-08 -0.831467 0.555574 6.23523e-08 -0.831467 0.555574 
-1.24322e-07 -0.831467 0.555574 3.5432e-08 -0.831467 0.555574 4.31893e-08 -0.831467 0.555574 
-2.79541e-07 -0.831467 0.555574 3.5432e-08 -0.831467 0.555574 -1.60916e-07 -0.831467 0.555574 
1 0 0 1 0 0 1 0 0 
1 0 0 1 0 0 1 0 0 
-1 0 0 -1 0 0 -1 0 0 
-1 0 0 -1 0 0 -1 0 0 
-1 0 0 -2.01647e-07 -0.382685 0.923879 2.15948e-09 -0.382685 0.923879 
1.74395e-08 -0.382685 0.923879 1.65123e-07 -0.555573 0.831467 -1.04496e-07 -0.555573 0.831468 
-1.13344e-07 -0.555573 0.831468 -9.13231e-08 -0.555573 0.831468 -9.89609e-08 -0.555573 0.831468 
2.10093e-08 -0.555573 0.831468 -2.11886e-08 -0.555573 0.831468 1.14743e-07 -0.555573 0.831467 
4.25644e-08 -0.555573 0.831468 -1.80413e-08 -0.555573 0.831468 1 0 0 
1 0 0 1 0 0 1 0 0 
1 0 0 1 0 0 1 0 0 
-1 0 0 -1 0 0 -1 0 0 
-1 0 0 -1 0 0 -1 0 0 
1.07149e-07 -2.27896e-08 1 -3.56633e-09 -1.59527e-07 1 -1.20184e-07 -3.29184e-07 1 
1.7619e-09 -0.195089 0.980785 -3.4184e-09 -0.195089 0.980786 -1.29807e-07 -0.195089 0.980785 
-1.17453e-07 -0.195089 0.980785 2.33065e-07 -0.195089 0.980786 -2.58651e-07 -0.195089 0.980785 
-1.72062e-07 -0.195089 0.980785 6.19847e-07 -0.195089 0.980785 -2.50283e-07 -0.195089 0.980785 
9.746e-08 -0.195089 0.980785 1 0 0 1 0 0 
1 0 0 1 0 0 1 0 0 
1 0 0 -1 0 0 -1 0 0 
-1 0 0 -1 0 0 -1 0 0 
-1 0 0 -1 0 0 -7.21877e-08 0.382685 0.923879 
1.82844e-08 0.382685 0.923879 1.63023e-07 0.382685 0.923879 -5.00341e-07 0.195089 0.980786 
-2.29449e-07 0.195089 0.980786 6.68552e-08 0.195089 0.980786 9.84249e-08 0.195089 0.980786 
1.32807e-08 0.195089 0.980786 1.86826e-07 0.195089 0.980786 -9.80393e-08 0.195089 0.980786 
6.21617e-08 0.195089 0.980786 2.16782e-07 0.195089 0.980786 1.67471e-07 0.195089 0.980785 
1 0 0 1 0 0 1 0 0 
1 0 0 1 0 0 1 0 0 
1 0 0 -1 0 0 -1 0 0 
-1 0 0 -1 0 0 -1 0 0 
-1 0 0 2.11883e-07 0.707107 0.707107 -2.74854e-08 0.707107 0.707107 
-1.79727e-07 0.707107 0.707107 1.31652e-07 0.555574 0.831467 1.10658e-07 0.555574 0.831467 
6.21373e-08 0.555574 0.831467 1.31303e-07 0.555574 0.831467 8.55738e-08 0.555574 0.831467 
-1.06324e-07 0.555574 0.831467 -2.72841e-08 0.555574 0.831467 -1.40897e-07 0.555574 0.831467 
-1.06324e-07 0.555574 0.831467 -9.075e-08 0.555574 0.831467 1 0 0 
1 0 0 1 0 0 1 0 0 
1 0 0 1 0 0 -1 0 0 
-1 0 0 -1 0 0 -1 0 0 
-1 0 0 -1 0 0 -1 0 0 
-1.95179e-07 0.923879 0.382685 -4.57699e-08 0.923879 0.382685 9.47705e-08 0.923879 0.382685 
2.75796e-07 0.831467 0.555574 1.2738e-08 0.831467 0.555574 -1.75231e-07 0.831467 0.555574 
-1.75231e-07 0.831467 0.555574 -1.20119e-07 0.831467 0.555574 2.9906e-08 0.831467 0.555574 
1.75817e-07 0.831467 0.555574 -8.43448e-08 0.831467 0.555574 2.9906e-08 0.831467 0.555574 
2.72841e-08 0.831467 0.555574 1 0 0 1 0 0 
1 0 0 1 0 0 1 0 0 
1 0 0 1 0 0 -1 0 0 
-1 0 0 -1 0 0 -1 0 0 
-1 0 0 -1 0 0 1.04827e-07 1 -8.86263e-08 
0 1 0 -1.10222e-07 1 1.01287e-07 -1.43741e-07 0.980786 0.195089 
-3.42986e-09 0.980786 0.195089 -5.48033e-08 0.980786 0.195089 -5.48033e-08 0.980786 0.195089 
2.3111e-07 0.980786 0.195089 -1.86826e-07 0.980786 0.195089 -1.64173e-07 0.980786 0.195089 
4.92035e-07 0.980786 0.195089 -1.86826e-07 0.980786 0.195089 9.80393e-08 0.980786 0.195089 
1 0 0 1 0 0 1 0 0 
1 0 0 1 0 0 1 0 0 
-1 0 0 -1 0 0 -1 0 0 
-1 0 0 -1 0 0 -1 0 0 
-1 0 0 -3.8955e-08 0.923879 -0.382684 -2.09997e-08 0.923879 -0.382684 
1.89783e-07 0.923879 -0.382684 -4.90299e-07 0.980786 -0.195089 -2.3111e-07 0.980786 -0.195089 
4.72521e-08 0.980786 -0.195089 5.93957e-08 0.980786 -0.195089 2.2352e-08 0.980786 -0.195089 
1.73093e-07 0.980786 -0.195089 -1.05958e-07 0.980786 -0.195089 1.60857e-07 0.980786 -0.195089 
1.73093e-07 0.980786 -0.195089 1.7119e-07 0.980786 -0.195089 1 0 0 
1 0 0 1 0 0 1 0 0 
1 0 0 1 0 0 1 0 0 
-1 0 0 -1 0 0 -1 0 0 
-1 0 0 -1 0 0 -1 0 0 
7.04896e-08 0.707107 -0.707107 -8.72986e-09 0.707106 -0.707107 -5.70061e-08 0.707107 -0.707107 
-1.60385e-08 0.831468 -0.555573 1.12094e-07 0.831468 -0.555573 4.85756e-08 0.831468 -0.555573 
3.68315e-08 0.831468 -0.555573 1.0678e-07 0.831468 -0.555573 -9.6585e-08 0.831468 -0.555573 
2.34372e-08 0.831468 -0.555573 -1.60385e-08 0.831468 -0.555573 -1.03282e-07 0.831468 -0.555573 
8.57439e-09 0.831468 -0.555573 1 0 0 1 0 0 
1 0 0 1 0 0 1 0 0 
1 0 0 -1 0 0 -1 0 0 
-1 0 0 -1 0 0 -1 0 0 
-1 0 0 -1 0 0 -5.98392e-09 0.382684 -0.923879 
4.13883e-08 0.382684 -0.923879 -1.59796e-08 0.382684 -0.923879 8.80294e-08 0.555573 -0.831468 
4.07066e-08 0.555573 -0.831468 -6.07053e-09 0.555573 -0.831468 -1.35654e-09 0.555573 -0.831468 
-8.01197e-09 0.555573 -0.831468 2.84726e-08 0.555573 -0.831468 4.41656e-08 0.555573 -0.831468 
-6.54729e-08 0.555573 -0.831468 -6.62528e-08 0.555573 -0.831468 -5.31983e-08 0.555573 -0.831468 
1 0 0 1 0 0 1 0 0 
1 0 0 1 0 0 1 0 0 
1 0 0 -1 0 0 -1 0 0 
-1 0 0 4.62962e-08 0.195089 -0.980786 -2.13401e-08 0.195089 -0.980786 
1.78518e-08 0.195089 -0.980786 2.95693e-09 0.195089 -0.980786 -1.31504e-08 0.195089 -0.980786 
-3.82872e-09 0.195089 -0.980786 8.72593e-09 0.195089 -0.980786 -2.69775e-08 0.195089 -0.980786 
1.80966e-08 0.195089 -0.980786 -5.03631e-08 0.195089 -0.980786 1 0 0 
1 0 0 1 0 0 
FIELD FieldData 1
my_field 4 494 double
1.05701 1.18812 1.13111 0.942987 1.05701 1.18812 1.13111 0.942987 1.0608 
1.20061 1.13981 0.939203 1.09395 1.30998 1.21604 0.906055 1.18489 1.61006 
1.42517 0.815113 1.09395 1.30998 1.21604 0.906055 1.06499 1.21446 1.14946 
0.935006 1.13313 1.43929 1.30616 0.866866 1.04591 1.15148 1.10557 0.954093 
1.04739 1.15636 1.10897 0.952613 1.03924 1.12948 1.09024 0.960759 1.02219 
1.07323 1.05104 0.977807 1.04591 1.15148 1.10557 0.954093 1.04739 1.15636 
1.10897 0.952613 1.06499 1.21446 1.14946 0.935006 1.13313 1.43929 1.30616 
0.866866 1.0608 1.20061 1.13981 0.939203 1.18489 1.61006 1.42517 0.815113 
1.05701 1.18812 1.13111 0.942987 1.09395 1.30998 1.21604 0.906055 1.02435 
1.08035 1.056 0.97565 0.971174 0.904884 0.93371 1.02883 1.00229 1.00754 
1.00526 0.997713 0.905925 0.689586 0.783662 1.09408 0.990362 0.968198 0.977836 
1.00964 0.875133 0.587984 0.712852 1.12487 0.986631 0.955889 0.969257 1.01337 
0.866135 0.558294 0.69216 1.13387 0.990362 0.968198 0.977836 1.00964 0.875133 
0.587984 0.712852 1.12487 1.00229 1.00754 1.00526 0.997713 0.905925 0.689586 
0.783662 1.09408 1.02435 1.08035 1.056 0.97565 0.971174 0.904884 0.93371 
1.02883 1.05701 1.18812 1.13111 0.942987 1.0608 1.20061 1.13981 0.939203 
1.09395 1.30998 1.21604 0.906055 1.18489 1.61006 1.42517 0.815113 1.06499 
1.21446 1.14946 0.935006 1.13313 1.43929 1.30616 0.866866 1.04591 1.15148 
1.10557 0.954093 1.04739 1.15636 1.10897 0.952613 1.03924 1.12948 1.09024 
0.960759 1.02219 1.07323 1.05104 0.977807 1.04591 1.15148 1.10557 0.954093 
1.04739 1.15636 1.10897 0.952613 1.06499 1.21446 1.14946 0.935006 1.13313 
1.43929 1.30616 0.866866 1.0608 1.20061 1.13981 0.939203 1.18489 1.61006 
1.42517 0.815113 1.05701 1.18812 1.13111 0.942987 1.09395 1.30998 1.21604 
0.906055 1.02435 1.08035 1.056 0.97565 0.971174 0.904884 0.93371 1.02883 
1.00229 1.00754 1.00526 0.997713 0.905925 0.689586 0.783662 1.09408 0.990362 
0.968198 0.977836 1.00964 0.875133 0.587984 0.712852 1.12487 0.986631 0.955889 
0.969257 1.01337 0.866135 0.558294 0.69216 1.13387 0.990362 0.968198 0.977836 
1.00964 0.875133 0.587984 0.712852 1.12487 1.00229 1.00754 1.00526 0.997713 
0.905925 0.689586 0.783662 1.09408 1.02435 1.08035 1.056 0.97565 0.971174 
0.904884 0.93371 1.02883 1.05701 1.18812 1.13111 0.942987 1.05701 1.18812 
1.13111 0.942987 1.05701 1.18812 1.13111 0.942987 1.05701 1.18812 1.13111 
0.942987 1.05701 1.18812 1.13111 0.942987 1.0589 1.19436 1.13546 0.941095 
1.06017 1.19853 1.13836 0.939834 1.05954 1.19645 1.13691 0.940464 1.0589 
1.19436 1.13546 0.941095 1.05827 1.19228 1.13401 0.941726 1.05764 1.1902 
1.13256 0.942356 1.05849 1.19299 1.1345 0.941512 1.05816 1.19191 1.13375 
0.94184 1.15387 1.5077 1.35383 0.846135 1.12284 1.40534 1.28249 0.877158 
1.09182 1.30297 1.21115 0.908181 1.0589 1.19436 1.13546 0.941095 1.08259 
1.27251 1.18992 0.917412 1.10816 1.3569 1.24873 0.891837 1.13374 1.44128 
1.30755 0.866263 1.15931 1.52567 1.36636 0.840688 1.10635 1.35091 1.24456 
0.893652 1.08383 1.27662 1.19279 0.916166 1.06624 1.21859 1.15234 0.933754 
1.07548 1.24905 1.17358 0.924521 1.08472 1.27951 1.19481 0.915288 1.13942 
1.46002 1.32061 0.860584 1.10372 1.34223 1.23852 0.896281 1.12639 1.41705 
1.29066 0.873608 1.10911 1.35999 1.2509 0.890898 1.12426 1.41001 1.28575 
0.875741 1.13942 1.46002 1.32061 0.860584 1.15458 1.51003 1.35546 0.845427 
1.16973 1.56005 1.39031 0.83027 1.13942 1.46002 1.32061 0.860584 1.09395 
1.30998 1.21604 0.906055 1.09395 1.30998 1.21604 0.906055 1.09395 1.30998 
1.21604 0.906055 1.09395 1.30998 1.21604 0.906055 1.09395 1.30998 1.21604 
0.906055 1.1294 1.42696 1.29757 0.870602 1.12152 1.40097 1.27945 0.878481 
1.0629 1.20754 1.14464 0.937105 1.06339 1.20919 1.14579 0.936602 1.0618 
1.20392 1.14212 0.938198 1.0602 1.19866 1.13845 0.939795 1.05861 1.19339 
1.13478 0.941391 1.06151 1.20298 1.14146 0.938486 1.1161 1.38308 1.26699 
0.883901 1.09906 1.32688 1.22781 0.900936 1.08203 1.27067 1.18863 0.917971 
1.0629 1.20754 1.14464 0.937105 1.07527 1.24835 1.17308 0.924736 1.08973 
1.29608 1.20635 0.910268 1.1042 1.34382 1.23962 0.895801 1.11866 1.39155 
1.27289 0.881333 1.08945 1.29517 1.20572 0.910544 1.07672 1.25314 1.17642 
0.923284 1.15901 1.52468 1.36566 0.84099 1.12491 1.41216 1.28725 0.875091 
1.13755 1.45386 1.31631 0.862452 1.10179 1.33584 1.23406 0.898217 1.10962 
1.3617 1.25209 0.890379 1.11746 1.38757 1.27011 0.882542 1.12529 1.41343 
1.28814 0.874704 1.15901 1.52468 1.36566 0.84099 1.14553 1.48018 1.33465 
0.854475 1.05545 1.18297 1.12751 0.944549 1.04776 1.15759 1.10983 0.952242 
1.04961 1.16369 1.11408 0.950391 1.05146 1.1698 1.11834 0.94854 1.05331 
1.17591 1.1226 0.946689 1.05516 1.18201 1.12685 0.944838 1.05545 1.18296 
1.12751 0.944551 1.04702 1.15514 1.10812 0.952983 1.04665 1.15392 1.10727 
0.953353 1.04628 1.1527 1.10642 0.953723 1.05545 1.18297 1.12751 0.944549 
1.06147 1.20284 1.14136 0.938527 1.05795 1.19122 1.13326 0.942049 1.05443 
1.1796 1.12517 0.94557 1.05091 1.16798 1.11707 0.949092 1.05142 1.16967 
1.11825 0.94858 1.05455 1.18001 1.12545 0.945446 1.09026 1.29783 1.20756 
0.90974 1.08531 1.28148 1.19617 0.914693 1.08205 1.27074 1.18869 0.917948 
1.08619 1.28438 1.1982 0.913815 1.07843 1.25877 1.18035 0.921574 1.07067 
1.23317 1.1625 0.929334 1.06291 1.20757 1.14466 0.937094 1.05515 1.18196 
1.12682 0.944853 1.09026 1.29783 1.20756 0.90974 1.08951 1.29536 1.20585 
0.910487 1.04257 1.14048 1.0979 0.957426 1.0422 1.13925 1.09705 0.957797 
1.04516 1.14903 1.10386 0.954835 1.04812 1.1588 1.11068 0.951873 1.05109 
1.16857 1.11749 0.948911 1.05405 1.17835 1.1243 0.945949 1.04576 1.15098 
1.10522 0.954245 1.04826 1.15923 1.11097 0.951743 1.02645 1.08729 1.06084 
0.973545 1.03071 1.10135 1.07064 0.969283 1.03498 1.11542 1.08044 0.965021 
1.04257 1.14048 1.0979 0.957426 1.04117 1.13583 1.09466 0.958836 1.03642 
1.12018 1.08376 0.963579 1.03168 1.10453 1.07285 0.968321 1.02693 1.08888 
1.06195 0.973064 1.03458 1.1141 1.07952 0.96542 1.03877 1.12791 1.08915 
0.961234 1.03479 1.11479 1.08 0.96521 1.04029 1.13294 1.09265 0.959713 
1.03607 1.11901 1.08294 0.963932 1.08199 1.27052 1.18854 0.918014 1.07003 
1.23106 1.16104 0.929972 1.05807 1.19161 1.13354 0.941931 1.04611 1.15215 
1.10604 0.95389 1.03415 1.11269 1.07854 0.965848 1.03479 1.11479 1.08 
0.96521 1.04782 1.1578 1.10998 0.952177 1.05807 1.19162 1.13355 0.941927 
1.04257 1.14048 1.0979 0.957426 1.04776 1.15759 1.10983 0.952242 1.04961 
1.16369 1.11408 0.950391 1.05146 1.1698 1.11834 0.94854 1.05331 1.17591 
1.1226 0.946689 1.05516 1.18201 1.12685 0.944838 1.04576 1.15098 1.10522 
0.954245 1.04826 1.15923 1.11097 0.951743 1.04702 1.15514 1.10812 0.952983 
1.04665 1.15392 1.10727 0.953353 1.04628 1.1527 1.10642 0.953723 1.04257 
1.14048 1.0979 0.957426 1.04087 1.13486 1.09399 0.95913 1.0425 1.14023 
1.09773 0.957501 1.04413 1.14561 1.10148 0.955871 1.04576 1.15098 1.10522 
0.954242 1.04473 1.1476 1.10286 0.95527 1.04329 1.14282 1.09954 0.956716 
1.03479 1.11479 1.08 0.96521 1.03513 1.11592 1.08079 0.964869 1.03661 
1.1208 1.08419 0.96339 1.08619 1.28438 1.1982 0.913815 1.07843 1.25877 
1.18035 0.921574 1.07067 1.23317 1.1625 0.929334 1.06291 1.20757 1.14466 
0.937094 1.05515 1.18196 1.12682 0.944853 1.03479 1.11479 1.08 0.96521 
1.04782 1.1578 1.10998 0.952177 1.05807 1.19162 1.13355 0.941927 1.05545 
1.18297 1.12751 0.944549 1.06339 1.20919 1.14579 0.936602 1.0618 1.20392 
1.14212 0.938198 1.0602 1.19866 1.13845 0.939795 1.05861 1.19339 1.13478 
0.941391 1.05545 1.18296 1.12751 0.944551 1.1161 1.38308 1.26699 0.883901 
1.09906 1.32688 1.22781 0.900936 1.08203 1.27067 1.18863 0.917971 1.05545 
1.18297 1.12751 0.944549 1.06335 1.20904 1.14569 0.936648 1.0808 1.2666 
1.18581 0.919202 1.09824 1.32417 1.22592 0.901757 1.11569 1.38173 1.26604 
0.884311 1.08559 1.28241 1.19682 0.914412 1.0702 1.23164 1.16144 0.929799 
1.09026 1.29783 1.20756 0.90974 1.06911 1.22803 1.15892 0.930894 1.08462 
1.2792 1.19458 0.915385 1.10179 1.33584 1.23406 0.898217 1.10962 1.3617 
1.25209 0.890379 1.11746 1.38757 1.27011 0.882542 1.12529 1.41343 1.28814 
0.874704 1.09026 1.29783 1.20756 0.90974 1.08951 1.29536 1.20585 0.910487 
1.0629 1.20754 1.14464 0.937105 1.06017 1.19853 1.13836 0.939834 1.05954 
1.19645 1.13691 0.940464 1.0589 1.19436 1.13546 0.941095 1.05827 1.19228 
1.13401 0.941726 1.05764 1.1902 1.13256 0.942356 1.06151 1.20298 1.14146 
0.938486 1.15387 1.5077 1.35383 0.846135 1.12284 1.40534 1.28249 0.877158 
1.09182 1.30297 1.21115 0.908181 1.0629 1.20754 1.14464 0.937105 1.08897 
1.29358 1.2046 0.911027 1.11295 1.3727 1.25974 0.887049 1.13693 1.45182 
1.31489 0.86307 1.16091 1.53094 1.37003 0.839092 1.10842 1.35775 1.24933 
0.891579 1.08733 1.28815 1.20082 0.912674 1.15901 1.52468 1.36566 0.84099 
1.12102 1.39934 1.27831 0.878975 1.14222 1.46928 1.32706 0.857778 1.10911 
1.35999 1.2509 0.890898 1.12426 1.41001 1.28575 0.875741 1.13942 1.46002 
1.32061 0.860584 1.15458 1.51003 1.35546 0.845427 1.16973 1.56005 1.39031 
0.83027 1.15901 1.52468 1.36566 0.84099 1.14553 1.48018 1.33465 0.854475 
1.0589 1.19436 1.13546 0.941095 1.05701 1.18812 1.13111 0.942987 1.05701 
1.18812 1.13111 0.942987 1.05701 1.18812 1.13111 0.942987 1.05701 1.18812 
1.13111 0.942987 1.05855 1.19321 1.13465 0.941446 1.08472 1.27951 1.19481 
0.915288 1.07548 1.24905 1.17358 0.924521 1.06624 1.21859 1.15234 0.933754 
1.0589 1.19436 1.13546 0.941095 1.06743 1.22248 1.15506 0.932573 1.07406 
1.24436 1.1703 0.925944 1.08069 1.26623 1.18555 0.919314 1.08732 1.28811 
1.20079 0.912685 1.07185 1.23706 1.16522 0.928155 1.06602 1.21783 1.15182 
0.933982 1.13942 1.46002 1.32061 0.860584 1.11473 1.37857 1.26383 0.885271 
1.1204 1.39727 1.27687 0.879602 1.09395 1.30998 1.21604 0.906055 1.09395 
1.30998 1.21604 0.906055 1.09395 1.30998 1.21604 0.906055 1.09395 1.30998 
1.21604 0.906055 1.13942 1.46002 1.32061 0.860584 1.131 1.43222 1.30123 
0.869009 1.04068 1.13423 1.09356 0.959318 1.02979 1.09831 1.06852 0.970206 
1.03524 1.11627 1.08104 0.964762 1.04068 1.13423 1.09356 0.959318 1.04612 
1.1522 1.10607 0.953875 1.05157 1.17016 1.11859 0.948431 1.04371 1.14422 
1.10051 0.956293 0.984468 0.948751 0.964283 1.01553 0.997762 0.992617 0.994855 
1.00224 1.01106 1.03648 1.02543 0.988945 1.04068 1.13423 1.09356 0.959318 
1.03984 1.13147 1.09163 0.960156 1.02268 1.07483 1.05215 0.977324 1.00551 
1.01818 1.01267 0.994493 0.988341 0.961531 0.97319 1.01166 1.01289 1.04255 
1.02965 0.987108 1.02806 1.09259 1.06453 0.971939 1.03256 1.10743 1.07488 
0.967442 1.0482 1.15905 1.11085 0.951797 1.03287 1.10846 1.07559 0.96713 
1.07349 1.24246 1.16899 0.926518 1.05302 1.17495 1.12193 0.94698 1.03256 
1.10743 1.07488 0.967442 1.0121 1.03992 1.02782 0.987905 0.991637 0.9724 
0.980765 1.00837 1.03256 1.10743 1.07488 0.967442 1.04394 1.14496 1.10103 