# vtk DataFile Version 3.0
vtk output
ASCII
DATASET POLYDATA
POINTS 66 float
0.5 0.2 0.3 0.5 0.2 -0.2 0.5 0.00865828 -0.16194 
0.85 0.2 -0.2 0.85 0.00865828 -0.16194 0.85 0.2 0.3 
0.5 -0.153553 -0.0535534 0.85 -0.153553 -0.0535534 0.5 -0.26194 0.108658 
0.85 -0.26194 0.108658 0.5 -0.3 0.3 0.85 -0.3 0.3 
0.5 -0.26194 0.491342 0.85 -0.26194 0.491342 0.5 -0.153553 0.653553 
0.85 -0.153553 0.653553 0.5 0.00865828 0.76194 0.85 0.00865828 0.76194 
0.5 0.2 0.8 0.85 0.2 0.8 0.5 0.391342 0.76194 
0.85 0.391342 0.76194 0.5 0.553553 0.653553 0.85 0.553553 0.653553 
0.5 0.66194 0.491342 0.85 0.66194 0.491342 0.5 0.7 0.3 
0.85 0.7 0.3 0.5 0.66194 0.108658 0.85 0.66194 0.108658 
0.5 0.553553 -0.0535534 0.85 0.553553 -0.0535534 0.5 0.391342 -0.16194 
0.85 0.391342 -0.16194 0.5 0.2 -0.2 0.5 0.00865828 -0.16194 
0.85 0.2 -0.2 0.85 0.00865828 -0.16194 0.5 -0.153553 -0.0535534 
0.85 -0.153553 -0.0535534 0.5 -0.26194 0.108658 0.85 -0.26194 0.108658 
0.5 -0.3 0.3 0.85 -0.3 0.3 0.5 -0.26194 0.491342 
0.85 -0.26194 0.491342 0.5 -0.153553 0.653553 0.85 -0.153553 0.653553 
0.5 0.00865828 0.76194 0.85 0.00865828 0.76194 0.5 0.2 0.8 
0.85 0.2 0.8 0.5 0.391342 0.76194 0.85 0.391342 0.76194 
0.5 0.553553 0.653553 0.85 0.553553 0.653553 0.5 0.66194 0.491342 
0.85 0.66194 0.491342 0.5 0.7 0.3 0.85 0.7 0.3 
0.5 0.66194 0.108658 0.85 0.66194 0.108658 0.5 0.553553 -0.0535534 
0.85 0.553553 -0.0535534 0.5 0.391342 -0.16194 0.85 0.391342 -0.16194 

POLYGONS 48 208
3 0 1 2 
4 35 34 3 4 
3 5 37 36 
3 0 2 6 
4 38 35 4 7 
3 5 39 37 
3 0 6 8 
4 40 38 7 9 
3 5 41 39 
3 0 8 10 
4 42 40 9 11 
3 5 43 41 
3 0 10 12 
4 44 42 11 13 
3 5 45 43 
3 0 12 14 
4 46 44 13 15 
3 5 47 45 
3 0 14 16 
4 48 46 15 17 
3 5 49 47 
3 0 16 18 
4 50 48 17 19 
3 5 51 49 
3 0 18 20 
4 52 50 19 21 
3 5 53 51 
3 0 20 22 
4 54 52 21 23 
3 5 55 53 
3 0 22 24 
4 56 54 23 25 
3 5 57 55 
3 0 24 26 
4 58 56 25 27 
3 5 59 57 
3 0 26 28 
4 60 58 27 29 
3 5 61 59 
3 0 28 30 
4 62 60 29 31 
3 5 63 61 
3 0 30 32 
4 64 62 31 33 
3 5 65 63 
3 0 32 1 
4 34 64 33 3 
3 5 36 65 

POINT_DATA 66
SCALARS my_field double 4
LOOKUP_TABLE default
1.05701 1.18812 1.13111 0.942987 1.05701 1.18812 1.13111 0.942987 1.0608 
1.20061 1.13981 0.939203 1.09395 1.30998 1.21604 0.906055 1.18489 1.61006 
1.42517 0.815113 1.09395 1.30998 1.21604 0.906055 1.06499 1.21446 1.14946 
0.935006 1.13313 1.43929 1.30616 0.866866 1.04591 1.15148 1.10557 0.954093 
1.04739 1.15636 1.10897 0.952613 1.03924 1.12948 1.09024 0.960759 1.02219 
1.07323 1.05104 0.977807 1.04591 1.15148 1.10557 0.954093 1.04739 1.15636 
1.10897 0.952613 1.06499 1.21446 1.14946 0.935006 1.13313 1.43929 1.30616 
0.866866 1.0608 1.20061 1.13981 0.939203 1.18489 1.61006 1.42517 0.815113 
1.05701 1.18812 1.13111 0.942987 1.09395 1.30998 1.21604 0.906055 1.02435 
1.08035 1.056 0.97565 0.971174 0.904884 0.93371 1.02883 1.00229 1.00754 
1.00526 0.997713 0.905925 0.689586 0.783662 1.09408 0.990362 0.968198 0.977836 
1.00964 0.875133 0.587984 0.712852 1.12487 0.986631 0.955889 0.969257 1.01337 
0.866135 0.558294 0.69216 1.13387 0.990362 0.968198 0.977836 1.00964 0.875133 
0.587984 0.712852 1.12487 1.00229 1.00754 1.00526 0.997713 0.905925 0.689586 
0.783662 1.09408 1.02435 1.08035 1.056 0.97565 0.971174 0.904884 0.93371 
1.02883 1.05701 1.18812 1.13111 0.942987 1.0608 1.20061 1.13981 0.939203 
1.09395 1.30998 1.21604 0.906055 1.18489 1.61006 1.42517 0.815113 1.06499 
1.21446 1.14946 0.935006 1.13313 1.43929 1.30616 0.866866 1.04591 1.15148 
1.10557 0.954093 1.04739 1.15636 1.10897 0.952613 1.03924 1.12948 1.09024 
0.960759 1.02219 1.07323 1.05104 0.977807 1.04591 1.15148 1.10557 0.954093 
1.04739 1.15636 1.10897 0.952613 1.06499 1.21446 1.14946 0.935006 1.13313 
1.43929 1.30616 0.866866 1.0608 1.20061 1.13981 0.939203 1.18489 1.61006 
1.42517 0.815113 1.05701 1.18812 1.13111 0.942987 1.09395 1.30998 1.21604 
0.906055 1.02435 1.08035 1.056 0.97565 0.971174 0.904884 0.93371 1.02883 
1.00229 1.00754 1.00526 0.997713 0.905925 0.689586 0.783662 1.09408 0.990362 
0.968198 0.977836 1.00964 0.875133 0.587984 0.712852 1.12487 0.986631 0.955889 
0.969257 1.01337 0.866135 0.558294 0.69216 1.13387 0.990362 0.968198 0.977836 
1.00964 0.875133 0.587984 0.712852 1.12487 1.00229 1.00754 1.00526 0.997713 
0.905925 0.689586 0.783662 1.09408 1.02435 1.08035 1.056 0.97565 0.971174 
0.904884 0.93371 1.02883 
NORMALS Normals float
-1 0 0 -1 0 0 -1 0 0 
0 7.59655e-09 -1 0 -0.382683 -0.92388 1 0 0 
-1 0 0 0 -0.707107 -0.707107 -1 0 0 
0 -0.92388 -0.382683 -1 0 0 0 -1 1.51931e-08 
-1 0 0 0 -0.92388 0.382683 -1 0 0 
0 -0.707107 0.707107 -1 0 0 0 -0.382683 0.92388 
-1 0 0 0 7.59655e-09 1 -1 0 0 
0 0.382684 0.92388 -1 0 0 0 0.707107 0.707107 
-1 0 0 0 0.92388 0.382683 -1 0 0 
0 1 1.51931e-08 -1 0 0 0 0.92388 -0.382683 
-1 0 0 0 0.707107 -0.707107 -1 0 0 
0 0.382683 -0.92388 0 7.59655e-09 -1 0 -0.382683 -0.92388 
1 0 0 1 0 0 0 -0.707107 -0.707107 
1 0 0 0 -0.92388 -0.382683 1 0 0 
0 -1 1.51931e-08 1 0 0 0 -0.92388 0.382683 
1 0 0 0 -0.707107 0.707107 1 0 0 
0 -0.382683 0.92388 1 0 0 0 7.59655e-09 1 
1 0 0 0 0.382684 0.92388 1 0 0 
0 0.707107 0.707107 1 0 0 0 0.92388 0.382683 
1 0 0 0 1 1.51931e-08 1 0 0 
0 0.92388 -0.382683 1 0 0 0 0.707107 -0.707107 
1 0 0 0 0.382683 -0.92388 1 0 0 

