# vtk DataFile Version 3.0
vtk output
ASCII
DATASET POLYDATA
POINTS 66 float
0.5 0.2 0.3 0.5 0.2 -0.2 0.5 0.00865828 -0.16194 
0.85 0.2 -0.2 0.85 0.00865828 -0.16194 0.85 0.2 0.3 
0.5 -0.153553 -0.0535534 0.85 -0.153553 -0.0535534 0.5 -0.26194 0.108658 
0.85 -0.26194 0.108658 0.5 -0.3 0.3 0.85 -0.3 0.3 
0.5 -0.26194 0.491342 0.85 -0.26194 0.491342 0.5 -0.153553 0.653553 
0.85 -0.153553 0.653553 0.5 0.00865828 0.76194 0.85 0.00865828 0.76194 
0.5 0.2 0.8 0.85 0.2 0.8 0.5 0.391342 0.76194 
0.85 0.391342 0.76194 0.5 0.553553 0.653553 0.85 0.553553 0.653553 
0.5 0.66194 0.491342 0.85 0.66194 0.491342 0.5 0.7 0.3 
0.85 0.7 0.3 0.5 0.66194 0.108658 0.85 0.66194 0.108658 
0.5 0.553553 -0.0535534 0.85 0.553553 -0.0535534 0.5 0.391342 -0.16194 
0.85 0.391342 -0.16194 0.5 0.2 -0.2 0.5 0.00865828 -0.16194 
0.85 0.2 -0.2 0.85 0.00865828 -0.16194 0.5 -0.153553 -0.0535534 
0.85 -0.153553 -0.0535534 0.5 -0.26194 0.108658 0.85 -0.26194 0.108658 
0.5 -0.3 0.3 0.85 -0.3 0.3 0.5 -0.26194 0.491342 
0.85 -0.26194 0.491342 0.5 -0.153553 0.653553 0.85 -0.153553 0.653553 
0.5 0.00865828 0.76194 0.85 0.00865828 0.76194 0.5 0.2 0.8 
0.85 0.2 0.8 0.5 0.391342 0.76194 0.85 0.391342 0.76194 
0.5 0.553553 0.653553 0.85 0.553553 0.653553 0.5 0.66194 0.491342 
0.85 0.66194 0.491342 0.5 0.7 0.3 0.85 0.7 0.3 
0.5 0.66194 0.108658 0.85 0.66194 0.108658 0.5 0.553553 -0.0535534 
0.85 0.553553 -0.0535534 0.5 0.391342 -0.16194 0.85 0.391342 -0.16194 

POLYGONS 48 208
3 0 1 2 
4 35 34 3 4 
3 5 37 36 
3 0 2 6 
4 38 35 4 7 
3 5 39 37 
3 0 6 8 
4 40 38 7 9 
3 5 41 39 
3 0 8 10 
4 42 40 9 11 
3 5 43 41 
3 0 10 12 
4 44 42 11 13 
3 5 45 43 
3 0 12 14 
4 46 44 13 15 
3 5 47 45 
3 0 14 16 
4 48 46 15 17 
3 5 49 47 
3 0 16 18 
4 50 48 17 19 
3 5 51 49 
3 0 18 20 
4 52 50 19 21 
3 5 53 51 
3 0 20 22 
4 54 52 21 23 
3 5 55 53 
3 0 22 24 
4 56 54 23 25 
3 5 57 55 
3 0 24 26 
4 58 56 25 27 
3 5 59 57 
3 0 26 28 
4 60 58 27 29 
3 5 61 59 
3 0 28 30 
4 62 60 29 31 
3 5 63 61 
3 0 30 32 
4 64 62 31 33 
3 5 65 63 
3 0 32 1 
4 34 64 33 3 
3 5 36 65 

POINT_DATA 66
COLOR_SCALARS Colors 3
0.894118 1 0.105882 0.894118 1 0.105882 0.941176 1 0.0588235 
1 0.643137 0 0.501961 0 0 
1 0.643137 0 0.996078 1 0.00392157 
1 0.14902 0 0.756863 1 0.243137 
0.776471 1 0.223529 0.670588 1 0.329412 
0.458824 1 0.541176 0.756863 1 0.243137 
0.776471 1 0.223529 0.996078 1 0.00392157 
1 0.14902 0 0.941176 1 0.0588235 
0.501961 0 0 0.894118 1 0.105882 
1 0.643137 0 0.486275 1 0.513725 
0 0.819608 1 0.207843 1 0.792157 
0 0 1 0.0588235 1 0.941176 
0 0 0.611765 0.0117647 1 0.988235 
0 0 0.501961 0.0588235 1 0.941176 
0 0 0.611765 0.207843 1 0.792157 
0 0 1 0.486275 1 0.513725 
0 0.819608 1 0.894118 1 0.105882 
0.941176 1 0.0588235 1 0.643137 0 
0.501961 0 0 0.996078 1 0.00392157 
1 0.14902 0 0.756863 1 0.243137 
0.776471 1 0.223529 0.670588 1 0.329412 
0.458824 1 0.541176 0.756863 1 0.243137 
0.776471 1 0.223529 0.996078 1 0.00392157 
1 0.14902 0 0.941176 1 0.0588235 
0.501961 0 0 0.894118 1 0.105882 
1 0.643137 0 0.486275 1 0.513725 
0 0.819608 1 0.207843 1 0.792157 
0 0 1 0.0588235 1 0.941176 
0 0 0.611765 0.0117647 1 0.988235 
0 0 0.501961 0.0588235 1 0.941176 
0 0 0.611765 0.207843 1 0.792157 
0 0 1 0.486275 1 0.513725 
0 0.819608 1 
NORMALS Normals float
-1 0 0 -1 0 0 -1 0 0 
0 -1.44334e-07 -1 0 -0.382684 -0.923879 1 0 0 
-1 0 0 0 -0.707106 -0.707107 -1 0 0 
0 -0.923879 -0.382684 -1 0 0 0 -1 7.59654e-09 
-1 0 0 0 -0.923879 0.382685 -1 0 0 
0 -0.707106 0.707107 -1 0 0 0 -0.382685 0.923879 
-1 0 0 0 -1.44334e-07 1 -1 0 0 
0 0.382685 0.923879 -1 0 0 0 0.707107 0.707107 
-1 0 0 0 0.923879 0.382685 -1 0 0 
0 1 7.59654e-09 -1 0 0 0 0.923879 -0.382684 
-1 0 0 0 0.707107 -0.707107 -1 0 0 
0 0.382684 -0.923879 0 -1.44334e-07 -1 0 -0.382684 -0.923879 
1 0 0 1 0 0 0 -0.707106 -0.707107 
1 0 0 0 -0.923879 -0.382684 1 0 0 
0 -1 7.59654e-09 1 0 0 0 -0.923879 0.382685 
1 0 0 0 -0.707106 0.707107 1 0 0 
0 -0.382685 0.923879 1 0 0 0 -1.44334e-07 1 
1 0 0 0 0.382685 0.923879 1 0 0 
0 0.707107 0.707107 1 0 0 0 0.923879 0.382685 
1 0 0 0 1 7.59654e-09 1 0 0 
0 0.923879 -0.382684 1 0 0 0 0.707107 -0.707107 
1 0 0 0 0.382684 -0.923879 1 0 0 

