# vtk DataFile Version 3.0
vtk output
ASCII
DATASET POLYDATA
POINTS 114 float
0.25 0.35 0.15 0.338388 0.33097 0.186612 0.345671 0.33097 0.15 
0.41332 0.276777 0.21765 0.426777 0.276777 0.15 0.463388 0.195671 0.238388 
0.48097 0.195671 0.15 0.48097 0.1 0.245671 0.5 0.1 0.15 
0.463388 0.00432914 0.238388 0.48097 0.00432914 0.15 0.41332 -0.0767767 0.21765 
0.426777 -0.0767767 0.15 0.338388 -0.13097 0.186612 0.345671 -0.13097 0.15 
0.25 -0.15 0.15 0.31765 0.33097 0.21765 0.375 0.276777 0.275 
0.41332 0.195671 0.31332 0.426777 0.1 0.326777 0.41332 0.00432914 0.31332 
0.375 -0.0767767 0.275 0.31765 -0.13097 0.21765 0.286612 0.33097 0.238388 
0.31765 0.276777 0.31332 0.338388 0.195671 0.363388 0.345671 0.1 0.38097 
0.338388 0.00432914 0.363388 0.31765 -0.0767767 0.31332 0.286612 -0.13097 0.238388 
0.25 0.33097 0.245671 0.25 0.276777 0.326777 0.25 0.195671 0.38097 
0.25 0.1 0.4 0.25 0.00432914 0.38097 0.25 -0.0767767 0.326777 
0.25 -0.13097 0.245671 0.213388 0.33097 0.238388 0.18235 0.276777 0.31332 
0.161612 0.195671 0.363388 0.154329 0.1 0.38097 0.161612 0.00432914 0.363388 
0.18235 -0.0767767 0.31332 0.213388 -0.13097 0.238388 0.18235 0.33097 0.21765 
0.125 0.276777 0.275 0.0866796 0.195671 0.31332 0.0732233 0.1 0.326777 
0.0866796 0.00432914 0.31332 0.125 -0.0767767 0.275 0.18235 -0.13097 0.21765 
0.161612 0.33097 0.186612 0.0866796 0.276777 0.21765 0.0366117 0.195671 0.238388 
0.0190301 0.1 0.245671 0.0366117 0.00432914 0.238388 0.0866796 -0.0767767 0.21765 
0.161612 -0.13097 0.186612 0.154329 0.33097 0.15 0.0732233 0.276777 0.15 
0.0190301 0.195671 0.15 0 0.1 0.15 0.0190301 0.00432914 0.15 
0.0732233 -0.0767767 0.15 0.154329 -0.13097 0.15 0.161612 0.33097 0.113388 
0.0866796 0.276777 0.0823505 0.0366117 0.195671 0.0616117 0.0190301 0.1 0.0543291 
0.0366117 0.00432914 0.0616117 0.0866796 -0.0767767 0.0823505 0.161612 -0.13097 0.113388 
0.18235 0.33097 0.0823505 0.125 0.276777 0.025 0.0866796 0.195671 -0.0133204 
0.0732233 0.1 -0.0267767 0.0866796 0.00432914 -0.0133204 0.125 -0.0767767 0.025 
0.18235 -0.13097 0.0823505 0.213388 0.33097 0.0616117 0.18235 0.276777 -0.0133204 
0.161612 0.195671 -0.0633883 0.154329 0.1 -0.0809699 0.161612 0.00432914 -0.0633883 
0.18235 -0.0767767 -0.0133204 0.213388 -0.13097 0.0616117 0.25 0.33097 0.0543291 
0.25 0.276777 -0.0267767 0.25 0.195671 -0.0809699 0.25 0.1 -0.1 
0.25 0.00432914 -0.0809699 0.25 -0.0767767 -0.0267767 0.25 -0.13097 0.0543291 
0.286612 0.33097 0.0616117 0.31765 0.276777 -0.0133204 0.338388 0.195671 -0.0633883 
0.345671 0.1 -0.0809699 0.338388 0.00432914 -0.0633883 0.31765 -0.0767767 -0.0133204 
0.286612 -0.13097 0.0616117 0.31765 0.33097 0.0823505 0.375 0.276777 0.025 
0.41332 0.195671 -0.0133204 0.426777 0.1 -0.0267767 0.41332 0.00432914 -0.0133204 
0.375 -0.0767767 0.025 0.31765 -0.13097 0.0823505 0.338388 0.33097 0.113388 
0.41332 0.276777 0.0823505 0.463388 0.195671 0.0616117 0.48097 0.1 0.0543291 
0.463388 0.00432914 0.0616117 0.41332 -0.0767767 0.0823505 0.338388 -0.13097 0.113388 

POLYGONS 128 608
3 0 1 2 
4 2 1 3 4 
4 4 3 5 6 
4 6 5 7 8 
4 8 7 9 10 
4 10 9 11 12 
4 12 11 13 14 
3 14 13 15 
3 0 16 1 
4 1 16 17 3 
4 3 17 18 5 
4 5 18 19 7 
4 7 19 20 9 
4 9 20 21 11 
4 11 21 22 13 
3 13 22 15 
3 0 23 16 
4 16 23 24 17 
4 17 24 25 18 
4 18 25 26 19 
4 19 26 27 20 
4 20 27 28 21 
4 21 28 29 22 
3 22 29 15 
3 0 30 23 
4 23 30 31 24 
4 24 31 32 25 
4 25 32 33 26 
4 26 33 34 27 
4 27 34 35 28 
4 28 35 36 29 
3 29 36 15 
3 0 37 30 
4 30 37 38 31 
4 31 38 39 32 
4 32 39 40 33 
4 33 40 41 34 
4 34 41 42 35 
4 35 42 43 36 
3 36 43 15 
3 0 44 37 
4 37 44 45 38 
4 38 45 46 39 
4 39 46 47 40 
4 40 47 48 41 
4 41 48 49 42 
4 42 49 50 43 
3 43 50 15 
3 0 51 44 
4 44 51 52 45 
4 45 52 53 46 
4 46 53 54 47 
4 47 54 55 48 
4 48 55 56 49 
4 49 56 57 50 
3 50 57 15 
3 0 58 51 
4 51 58 59 52 
4 52 59 60 53 
4 53 60 61 54 
4 54 61 62 55 
4 55 62 63 56 
4 56 63 64 57 
3 57 64 15 
3 0 65 58 
4 58 65 66 59 
4 59 66 67 60 
4 60 67 68 61 
4 61 68 69 62 
4 62 69 70 63 
4 63 70 71 64 
3 64 71 15 
3 0 72 65 
4 65 72 73 66 
4 66 73 74 67 
4 67 74 75 68 
4 68 75 76 69 
4 69 76 77 70 
4 70 77 78 71 
3 71 78 15 
3 0 79 72 
4 72 79 80 73 
4 73 80 81 74 
4 74 81 82 75 
4 75 82 83 76 
4 76 83 84 77 
4 77 84 85 78 
3 78 85 15 
3 0 86 79 
4 79 86 87 80 
4 80 87 88 81 
4 81 88 89 82 
4 82 89 90 83 
4 83 90 91 84 
4 84 91 92 85 
3 85 92 15 
3 0 93 86 
4 86 93 94 87 
4 87 94 95 88 
4 88 95 96 89 
4 89 96 97 90 
4 90 97 98 91 
4 91 98 99 92 
3 92 99 15 
3 0 100 93 
4 93 100 101 94 
4 94 101 102 95 
4 95 102 103 96 
4 96 103 104 97 
4 97 104 105 98 
4 98 105 106 99 
3 99 106 15 
3 0 107 100 
4 100 107 108 101 
4 101 108 109 102 
4 102 109 110 103 
4 103 110 111 104 
4 104 111 112 105 
4 105 112 113 106 
3 106 113 15 
3 0 2 107 
4 107 2 4 108 
4 108 4 6 109 
4 109 6 8 110 
4 110 8 10 111 
4 111 10 12 112 
4 112 12 14 113 
3 113 14 15 

POINT_DATA 114
SCALARS scalars float
LOOKUP_TABLE default
1.05195 1.08169 1.08385 1.11988 1.12451 1.17527 1.18505 1.22722 1.24438 
1.16822 1.18155 1.1707 1.18209 1.11338 1.11809 1.06243 1.07536 1.10594 
1.14718 1.18086 1.13315 1.14009 1.10035 1.06542 1.08366 1.10577 1.11949 
1.08855 1.09956 1.08205 1.05332 1.05699 1.06127 1.06178 1.04787 1.0604 
1.06248 1.04125 1.03246 1.0261 1.02248 1.01981 1.03103 1.0453 1.03144 
1.01562 1.00717 1.00464 1.00565 1.01394 1.03276 1.02528 1.0074 1.00116 
1.00028 1.001 1.00644 1.02548 1.02321 1.00521 1.00029 1 1.00027 
1.00452 1.02313 1.02528 1.0074 1.00116 1.00028 1.001 1.00644 1.02548 
1.03144 1.01562 1.00717 1.00464 1.00565 1.01394 1.03276 1.04125 1.03246 
1.0261 1.02248 1.01981 1.03103 1.0453 1.05332 1.05699 1.06127 1.06178 
1.04787 1.0604 1.06248 1.06542 1.08366 1.10577 1.11949 1.08855 1.09956 
1.08205 1.07536 1.10594 1.14718 1.18086 1.13315 1.14009 1.10035 1.08169 
1.11988 1.17527 1.22722 1.16822 1.1707 1.11338 
