# vtk DataFile Version 4.0
vtk output
ASCII
DATASET POLYDATA
POINTS 5901 float
0 0 0 0 0 0.4 -0.124561 0.0889721 0.369552 
-0.230159 0.164399 0.282843 -0.300717 0.214798 0.153073 -0.325493 0.232495 0 
-0.300717 0.214798 -0.153073 -0.230159 0.164399 -0.282843 -0.124561 0.0889721 -0.369552 
0 0 -0.4 0.124561 -0.0889721 -0.369552 0.230159 -0.164399 -0.282843 
0.300717 -0.214798 -0.153073 0.325493 -0.232495 0 0.300717 -0.214798 0.153073 
0.230159 -0.164399 0.282843 0.124561 -0.0889721 0.369552 0 0 1 
0 1 1 0 1 0.284385 0 0.263357 0.369552 
0.714286 1 0.4 1 1.4 0.4 0.875439 1.48897 0.369552 
0.526174 1 0.369552 0 0.263357 0.369552 0 1 0.0834621 
1 1 0.446246 1 1 1 1 0 1 
1 0 0.561861 1 1.4 0 1.12456 1.31103 -0.369552 
1 1.4 -0.4 1.23016 1.2356 -0.282843 1.30072 1.1852 -0.153073 
1.23016 1.2356 0.282843 1.30072 1.1852 0.153073 1.12456 1.31103 0.369552 
0.769841 1.5644 0.282843 0.699283 1.6148 0.153073 0.674507 1.6325 0 
0.699283 1.6148 -0.153073 0.769841 1.5644 -0.282843 0.875439 1.48897 -0.369552 
0 0.486622 0.282843 0 1 0 0 0.811771 0 
0 0.486622 0.282843 0.366698 1 0.282843 0 0.635803 0.153073 
0 0.688186 0 0.526175 1 0.369552 0 0.635802 0.153073 
0.260141 1 0.153073 1 0 0 1 0.185097 0 
1 0 0.0718859 0.366697 1 0.282842 0.134449 1 0 
0 0.688187 0 0.222723 1 0 1 0.588228 0 
1 0 0.511693 0.222724 1 0 0.260141 1 0.153072 
0 0.635802 -0.153073 0.260141 1 -0.153073 1 0.711811 0 
1 0.540938 0.49932 0 0.486622 -0.282843 0.366698 1 -0.282843 
1 0.869681 0.461313 0 0.263357 -0.369552 0.526174 1 -0.369552 
1 1 0.358198 1 0.764196 0.153075 0.714286 1 -0.4 
1 1 0.316485 1 0.913371 0.282841 1 1.13665 -0.369552 
0.188112 0 -0.369552 0.902396 1 -0.369552 0.867788 0 0 
1 0.913377 -0.282843 0.347587 0 -0.282843 1 1 -0.316484 
0.579836 0 0 1 0.764194 -0.153073 0.454145 0 -0.153073 
0.491562 0 0 0.613614 0 0.49932 1.32549 1.1675 0 
1 0.711814 0 0.491561 0 0 0.378799 0 0.461313 
0.454145 0 0.153073 0.221895 0 0.435916 1.30071 1.18519 0.153073 
1.23015 1.23559 0.282843 1.12455 1.31102 0.369552 0.999992 1.39999 0.4 
1 0.764194 0.153073 0.454145 0 0.153073 0.347588 0 0.282843 
0.101806 0 0.416478 1 0.913377 0.282843 0.347587 0 0.282843 
0.188113 0 0.369552 0.936184 1 0.435917 1 1.13665 0.369552 
0.188112 0 0.369552 1 1 0.316484 0.902396 1 0.369552 
0.816093 1 0.416479 0.714285 1 0.4 0.902401 1 0.369551 
0 0 0.4 0 0 0.4 0 0 0.4 
0 0 0.4 0 0 0.4 -0.124561 0.0889721 0.369552 
-0.230159 0.164399 0.282843 -0.300717 0.214798 0.153073 -0.325493 0.232495 0 
-0.300717 0.214798 -0.153073 -0.230159 0.164399 -0.282843 -0.124561 0.0889721 -0.369552 
0 0 -0.4 0.124561 -0.0889721 -0.369552 0.230159 -0.164399 -0.282843 
0.300717 -0.214798 -0.153073 0.325493 -0.232495 0 0.300717 -0.214798 0.153073 
0.230159 -0.164399 0.282843 0.124561 -0.0889721 0.369552 0 0 1 
0 0 1 0 1 1 0 1 1 
0 1 0.284385 0 1 0.284385 0 1 0.284385 
0.714286 1 0.4 1 1.4 0.4 1 1.4 0.4 
0.875439 1.48897 0.369552 0 1 0.0834621 0 1 0.0834621 
0 1 0.0834621 1 1 0.446246 1 1 0.446246 
1 1 0.446246 1 1 1 1 1 1 
1 0 1 1 0 1 1 0 0.561861 
1 0 0.561861 1 0 0.561861 1.12456 1.31103 -0.369552 
1 1.4 -0.4 1.23016 1.2356 -0.282843 1.30072 1.1852 -0.153073 
1.23016 1.2356 0.282843 1.30072 1.1852 0.153073 1.12456 1.31103 0.369552 
0.769841 1.5644 0.282843 0.699283 1.6148 0.153073 0.674507 1.6325 0 
0.699283 1.6148 -0.153073 0.769841 1.5644 -0.282843 0.875439 1.48897 -0.369552 
0 1 0 0 1 0 0 0.811771 0 
0 0.811771 0 0 0.688186 0 1 0 0 
1 0 0 1 0.185097 0 1 0 0.0718859 
0.134449 1 0 0.134449 1 0 1 0.588228 0 
1 0 0.511693 0.222724 1 0 1 0.711811 0 
1 0.869681 0.461313 1 1 0.358198 1 1 0.358198 
1 1 0.316485 0.867788 0 0 0.579836 0 0 
0.491562 0 0 1.32549 1.1675 0 0.378799 0 0.461313 
0.221895 0 0.435916 0.101806 0 0.416478 0.816093 1 0.416479 
0 0 0.0444444 0 0 0.0888889 0 0 0.133333 
0 0 0.177778 0 0 0.222222 0 0 0.266667 
0 0 0.311111 0 0 0.355556 -0.0311402 0.022243 0.392388 
-0.0622805 0.044486 0.384776 -0.0934207 0.0667291 0.377164 -0.110721 0.0790863 0.328491 
-0.0968808 0.0692005 0.287429 -0.0830407 0.0593147 0.246368 -0.0692006 0.0494289 0.205307 
-0.0553604 0.0395432 0.164245 -0.0415203 0.0296574 0.123184 -0.0276802 0.0197716 0.0821227 
-0.0138401 0.00988579 0.0410613 -0.0323724 0.0231231 0.2 -0.0251785 0.0179846 0.155556 
-0.04676 0.0334 0.288889 -0.0198835 0.0142025 0.288889 -0.0338695 0.0241925 0.333333 
-0.0725094 0.0517924 0.323888 -0.0715907 0.0511362 0.276249 -0.0569226 0.040659 0.351675 
-0.0457376 0.0326697 0.242936 -0.150961 0.107829 0.347875 -0.17736 0.126686 0.326198 
-0.203759 0.145542 0.30452 -0.204586 0.146132 0.251416 -0.179013 0.127866 0.219989 
-0.153439 0.109599 0.188562 -0.127866 0.0913328 0.157135 -0.102293 0.0730662 0.125708 
-0.0767197 0.0547997 0.094281 -0.0511464 0.0365331 0.062854 -0.0255732 0.0182666 0.031427 
-0.0921887 0.065849 0.169552 -0.0717024 0.0512159 0.131874 -0.133161 0.0951152 0.244908 
-0.108331 0.077379 0.257548 -0.135092 0.0964944 0.292032 -0.16785 0.119892 0.265134 
-0.152166 0.10869 0.221554 -0.162102 0.115787 0.298136 -0.117907 0.0842191 0.202934 
-0.247799 0.176999 0.2504 -0.265438 0.189599 0.217958 -0.283078 0.202198 0.185515 
-0.267304 0.190932 0.136065 -0.233891 0.167065 0.119057 -0.200478 0.143199 0.102049 
-0.167065 0.119332 0.0850406 -0.133652 0.0954658 0.0680324 -0.100239 0.0715993 0.0510243 
-0.066826 0.0477329 0.0340162 -0.033413 0.0238664 0.0170081 -0.10731 0.0766501 0.0881152 
-0.16863 0.12045 0.138467 -0.22191 0.158507 0.198699 -0.239178 0.170842 0.16144 
-0.201755 0.144111 0.15992 -0.18185 0.129893 0.185075 -0.13809 0.0986358 0.11307 
-0.225887 0.161348 0.231331 -0.306911 0.219222 0.114805 -0.313105 0.223646 0.0765365 
-0.319299 0.228071 0.0382682 -0.284806 0.203433 0 -0.24412 0.174371 0 
-0.203433 0.145309 0 -0.162747 0.116247 0 -0.12206 0.0871856 0 
-0.0813733 0.0581237 0 -0.0406866 0.0290619 0 -0.142403 0.101717 0.0302728 
-0.101717 0.0726547 0.01942 -0.18309 0.130778 0.0411257 -0.234576 0.167555 0.0589537 
-0.223776 0.15984 0.0256701 -0.264463 0.188902 0.0356167 -0.269378 0.192413 0.0856916 
-0.29142 0.208157 0.0513447 -0.24341 0.173864 0.0891633 -0.205221 0.146586 0.0657956 
-0.319299 0.228071 -0.0382682 -0.313105 0.223646 -0.0765365 -0.306911 0.219222 -0.114805 
-0.267304 0.190932 -0.136065 -0.233891 0.167065 -0.119057 -0.200478 0.143199 -0.102049 
-0.167065 0.119332 -0.0850406 -0.133652 0.0954658 -0.0680324 -0.100239 0.0715993 -0.0510243 
-0.066826 0.0477329 -0.0340162 -0.033413 0.0238664 -0.0170081 -0.101717 0.0726547 -0.01942 
-0.142403 0.101717 -0.0302728 -0.18309 0.130778 -0.0411257 -0.264463 0.188902 -0.0575284 
-0.264463 0.188902 -0.0233321 -0.260875 0.186339 -0.0970703 -0.229211 0.163722 -0.0727139 
-0.201373 0.143838 -0.0674539 -0.223776 0.15984 -0.032366 -0.283078 0.202198 -0.185515 
-0.265438 0.189599 -0.217958 -0.247799 0.176999 -0.2504 -0.204586 0.146132 -0.251416 
-0.179013 0.127866 -0.219989 -0.153439 0.109599 -0.188562 -0.127866 0.0913328 -0.157135 
-0.102293 0.0730662 -0.125708 -0.0767197 0.0547997 -0.094281 -0.0511464 0.0365331 -0.062854 
-0.0255732 0.0182666 -0.031427 -0.13797 0.0985501 -0.113291 -0.10731 0.0766501 -0.0881152 
-0.19929 0.14235 -0.163642 -0.209575 0.149697 -0.133128 -0.237636 0.16974 -0.166015 
-0.215749 0.154106 -0.206271 -0.180286 0.128775 -0.186997 -0.242603 0.173288 -0.199208 
-0.165134 0.117953 -0.144896 -0.203759 0.145542 -0.30452 -0.17736 0.126686 -0.326198 
-0.150961 0.107829 -0.347875 -0.110721 0.0790863 -0.328491 -0.0968808 0.0692005 -0.287429 
-0.0830407 0.0593147 -0.246368 -0.0692006 0.0494289 -0.205307 -0.0553604 0.0395432 -0.164245 
-0.0415203 0.0296574 -0.123184 -0.0276802 0.0197716 -0.0821227 -0.0138401 0.00988579 -0.0410613 
-0.0921887 0.065849 -0.169552 -0.0717024 0.0512159 -0.131874 -0.133162 0.0951153 -0.244908 
-0.108331 0.077379 -0.257548 -0.152166 0.10869 -0.221554 -0.16785 0.119892 -0.265134 
-0.135092 0.0964943 -0.292032 -0.162102 0.115787 -0.298136 -0.107443 0.0767451 -0.211526 
-0.0934207 0.0667291 -0.377164 -0.0622805 0.044486 -0.384776 -0.0311402 0.022243 -0.392388 
0 0 -0.355556 0 0 -0.311111 0 0 -0.266667 
0 0 -0.222222 0 0 -0.177778 0 0 -0.133333 
0 0 -0.0888889 0 0 -0.0444444 -0.0251785 0.0179846 -0.155556 
-0.0395662 0.0282615 -0.244444 -0.0644594 0.0460424 -0.327986 -0.0298401 0.0213144 -0.333333 
-0.043018 0.0307271 -0.290263 -0.0695468 0.0496763 -0.27729 -0.0321605 0.0229718 -0.200052 
-0.0874691 0.0624779 -0.344989 0.0311402 -0.022243 -0.392388 0.0622805 -0.044486 -0.384776 
0.0934207 -0.0667291 -0.377164 0.110721 -0.0790863 -0.328491 0.0968808 -0.0692005 -0.287429 
0.0830407 -0.0593147 -0.246368 0.0692006 -0.0494289 -0.205307 0.0553604 -0.0395432 -0.164245 
0.0415203 -0.0296574 -0.123184 0.0276802 -0.0197716 -0.0821227 0.0138401 -0.00988579 -0.0410613 
0.0323724 -0.0231231 -0.2 0.0251785 -0.0179846 -0.155556 0.04676 -0.0334 -0.288889 
0.0198835 -0.0142025 -0.288889 0.0338695 -0.0241925 -0.333333 0.0725094 -0.0517924 -0.323888 
0.0715907 -0.0511362 -0.276249 0.0569226 -0.040659 -0.351675 0.0457376 -0.0326697 -0.242936 
0.150961 -0.107829 -0.347875 0.17736 -0.126686 -0.326198 0.203759 -0.145542 -0.30452 
0.204586 -0.146132 -0.251416 0.179013 -0.127866 -0.219989 0.153439 -0.109599 -0.188562 
0.127866 -0.0913328 -0.157135 0.102293 -0.0730662 -0.125708 0.0767197 -0.0547997 -0.094281 
0.0511464 -0.0365331 -0.062854 0.0255732 -0.0182666 -0.031427 0.0921887 -0.065849 -0.169552 
0.0717024 -0.0512159 -0.131874 0.133161 -0.0951152 -0.244908 0.108331 -0.077379 -0.257548 
0.135092 -0.0964944 -0.292032 0.16785 -0.119892 -0.265134 0.152166 -0.10869 -0.221554 
0.162102 -0.115787 -0.298136 0.117907 -0.0842191 -0.202934 0.247799 -0.176999 -0.2504 
0.265438 -0.189599 -0.217958 0.283078 -0.202198 -0.185515 0.267304 -0.190932 -0.136065 
0.233891 -0.167065 -0.119057 0.200478 -0.143199 -0.102049 0.167065 -0.119332 -0.0850406 
0.133652 -0.0954658 -0.0680324 0.100239 -0.0715993 -0.0510243 0.066826 -0.0477329 -0.0340162 
0.033413 -0.0238664 -0.0170081 0.10731 -0.0766501 -0.0881152 0.16863 -0.12045 -0.138467 
[...]
CELL_DATA 10633
FIELD FieldData 1
surface_field 1 10633 double
8.80253e-07 0.000107682 0.000586849 1.16398e-05 0.000189884 3.09201e-05 0.00101471 0.00571904 0.0016196 
0.00062634 0.00504225 0.00102078 0.00160282 0.0168986 0.00245624 0.00938122 0.0069657 0.0197825 
0.0214412 0.00828798 0.000380619 0.00859178 0.0167852 0.0203285 0.0035491 0.00563031 0.00881835 
0.0123489 0.019422 0.0156178 0.00663015 0.0131519 0.0114443 0.0101898 0.00490656 0.00244519 
0.00351654 0.0160783 5.4286e-06 0.0193033 0.00020851 0.0111995 0.0221488 0.0118811 3.21456e-05 
0.0116984 0.00010643 0.000479068 0.00686848 0.00188542 0.00145258 0.00196808 0.00389439 0.000778761 
0.00149136 0.00551878 0.014798 0.00681666 0.0169002 0.0194968 0.0159731 0.0111244 0.00929897 
0.0206143 0.00327397 0.00784575 0.0131692 0.000751491 0.00795202 0.0269323 0.0210221 0.00317354 
0.0171785 0.00929958 0.00414548 0.00632798 0.000248699 0.0317053 0.00440137 0.00204723 0.00810649 
0.00704644 0.0125624 0.00100482 0.0241277 1.71197e-05 0.000165837 0.0395668 0.00193147 0.000865633 
0.0112341 0.0249342 0.00453087 0.00359511 0.00881355 0.00695882 0.0189059 0.00328835 0.0318779 
0.0208556 0.0272406 0.0309212 0.0175741 0.0153134 0.0324034 0.0219299 0.0484738 0.0392436 
0.0142767 0.0211826 0.0126087 0.0348344 3.37984e-05 0.0468076 0.00711368 0.0133884 0.00403001 
0.00160445 0.000232263 0.00128986 0.000558244 0.00637039 0.00234111 0.00971607 0.0373687 0.00437624 
0.0248975 0.00945964 0.0516276 0.0241022 0.0604453 0.0521043 0.0329519 0.0298819 0.0356801 
0.0219018 0.0543252 0.0310377 0.0184038 0.0182432 0.00335772 0.0615128 0.0461914 0.0151937 
0.0253914 0.0391127 0.0438127 0.0327381 0.0138478 0.0233056 0.0553248 3.37984e-05 0.0201624 
0.00160445 0.00971607 0.0458732 0.00437624 0.000558244 0.00637039 0.000232263 0.00234111 0.00128986 
0.00711368 0.00403001 0.00335772 0.0528729 0.0133884 0.018068 0.0336017 0.0241022 0.0615128 
0.023392 0.0223789 0.0473887 0.055571 0.0350127 0.0338716 0.0507081 0.0301048 0.00945964 
0.0521043 0.0454956 0.029249 0.0391127 0.0182433 0.0310376 0.0135683 0.014898 1.71197e-05 
0.0109859 0.00328835 0.000165837 0.000865633 0.00100482 0.000248699 0.00193147 0.0322272 0.00439808 
0.00204723 0.0155898 0.012382 0.00695344 0.00452688 0.0157091 0.0390527 0.0215385 0.0255163 
0.0484738 0.00863251 0.00797358 0.0221589 0.028088 0.0404201 0.0170674 0.0138082 0.0302078 
0.00359194 0.0124836 0.0299738 0.0268729 0.0232187 0.0199038 0.0361234 0.0364582 0.00690542 
0.0181493 5.4286e-06 0.00757233 0.000479068 0.00149136 0.0171785 0.00600444 0.0206143 0.00010643 
0.000778761 3.21456e-05 0.00020851 0.00543362 0.00145258 0.000751491 0.00188542 0.00929899 0.00196808 
0.0169002 0.00306352 0.00383464 0.00681666 0.00327397 0.0269323 0.0111995 0.0193033 0.0111245 
0.0210221 0.0221488 0.00929958 0.00669924 0.0131692 0.0118811 0.014798 0.0194968 0.0159731 
0.0116984 0.00760769 0.00392615 8.80253e-07 0.00945573 0.00062634 3.09201e-05 0.000189884 0.000107682 
1.16398e-05 0.00488488 0.00565901 0.00101493 0.000380619 0.00247006 0.00161878 0.0024333 0.00160332 
0.0189306 0.00885843 0.00840031 0.00662586 0.0198842 0.017379 0.0103376 0.0162677 0.0123479 
0.0051384 0.00701594 0.000586849 0.00348348 0.0214412 0.0168946 0.0151026 0.0126434 0.0197235 
0.0117762 0.00357557 0.00102047 4.39599e-07 0.000104157 0.000584196 1.11992e-05 0.000134826 1.90241e-05 
0.00098304 0.00548339 0.000978634 0.000324486 0.00499529 0.000781791 0.00159718 0.0168529 0.00237707 
0.00935541 0.00696439 0.0181914 0.0214362 0.00713623 0.000331318 0.00842315 0.0164843 0.0197649 
0.0035332 0.00489777 0.00650479 0.0123425 0.013578 0.0121233 0.00400109 0.0124299 0.00781772 
0.00959411 0.00357442 0.00191491 0.00223139 0.0142472 -4.74686e-06 -0.00530084 -8.08289e-05 -0.00730732 
-0.0037692 -0.00166222 -1.80363e-05 0.00508175 -8.25198e-05 -0.000326608 -0.000755372 0.000200195 -0.000291502 
-0.00114622 0.000639517 -1.55283e-05 -0.00111288 0.000645103 -0.00158433 0.00286631 0.00221747 0.0100517 
0.00574196 -0.00405101 0.000538747 0.00144458 -0.00223975 -0.00288808 -0.00701132 -0.000383758 -0.0044644 
-0.0147105 -0.00980021 -0.000421629 -0.00991195 0.00281939 -0.00220278 -0.00409098 -0.000242009 -0.0289476 
-0.00379472 -0.00182472 -0.00674969 -0.00635772 -0.00949618 -0.000958464 -0.0223216 -1.69838e-05 -0.000164696 
-0.0370522 -0.00185817 -0.00085382 -0.00953594 -0.0240052 -0.00440116 -0.00331316 -0.00849668 -0.00683494 
-0.0167484 -0.00324287 -0.0234402 -0.0203352 -0.018758 -0.0265679 -0.0142931 -0.0146786 -0.03166 
-0.0175218 -0.0472205 -0.0378995 -0.0129277 -0.015161 -0.0123314 -0.0289165 -3.37964e-05 -0.0464908 
-0.00708577 -0.0133883 -0.00402986 -0.00160151 -0.000232096 -0.00128966 -0.00055821 -0.00637037 -0.0023411 
-0.00970128 -0.037138 -0.00436396 -0.0246687 -0.009459 -0.0515763 -0.0241022 -0.0604265 -0.0514469 
-0.0328781 -0.0298768 -0.0356541 -0.0217941 -0.0541797 -0.0310374 -0.0183961 -0.0182427 -0.00335518 
-0.0615128 -0.04619 -0.0150927 -0.0253397 -0.0391127 -0.0437908 -0.0323911 -0.0138143 -0.023293 
-0.0553232 -3.37964e-05 -0.0200774 -0.00160151 -0.00970128 -0.0458028 -0.00436396 -0.00055821 -0.00637037 
-0.000232096 -0.0023411 -0.00128966 -0.00708577 -0.00402986 -0.00335518 -0.0527021 -0.0133883 -0.0180583 
-0.0335976 -0.0241022 -0.0615128 -0.023208 -0.022357 -0.0473838 -0.0555493 -0.0346328 -0.0338057 
-0.0507077 -0.0299329 -0.009459 -0.0514469 -0.0451337 -0.0292318 -0.0391127 -0.0182426 -0.0310374 
-0.0135336 -0.0147944 -1.69838e-05 -0.00917427 -0.00324287 -0.000164696 -0.00085382 -0.000958464 -0.000242009 
-0.00185817 -0.0314505 -0.00379007 -0.00182472 -0.0150746 -0.012082 -0.00682914 -0.00439675 -0.0147696 
-0.037657 -0.0211497 -0.0247611 -0.0472205 -0.00828984 -0.00654327 -0.0210263 -0.0254541 -0.0371625 
-0.0135751 -0.0123194 -0.0256386 -0.00330923 -0.00937755 -0.020614 -0.0206657 -0.0211818 -0.0146963 
-0.0338518 -0.0315545 -0.00617077 -0.0157742 -4.74686e-06 -0.00235518 -0.000326608 -0.00111288 -0.00991195 
-0.00362397 0.00144458 -8.25198e-05 -1.55283e-05 -1.80363e-05 -8.08289e-05 0.00103546 -0.000291502 -0.000383758 
0.000200195 0.000538724 -0.00114622 0.00221747 -0.000144236 0.000942031 0.00286631 -0.00223975 -0.0147105 
-0.00730732 -0.00530084 -0.00405105 -0.00980021 -0.0037692 0.00281939 -0.0002828 -0.00701132 -0.00166225 
-0.00158433 0.0100517 0.00574196 0.00508175 -0.00392041 -0.00185428 4.39599e-07 0.00939147 0.000324486 
1.90241e-05 0.000134826 0.000104157 1.11992e-05 0.00370961 0.00507502 0.000983604 0.000331318 0.00240875 
0.000980403 0.00196892 0.00159779 0.0186198 0.00682268 0.00748088 0.00406013 0.0151882 0.0118447 
0.00990796 0.0146409 0.0123435 0.00504484 0.00700271 0.000584196 0.00231453 0.0214362 0.0168569 
0.0144659 0.00840763 0.0173466 0.00923066 0.00356528 0.000782823 0.0353493 0.975233 0.0235775 
0.837977 0.0695968 0.0465513 0.31925 0.46051 0.018033 0.0436429 0.539024 0.0179032 
0.0251429 0.927083 0.0334204 0.353898 0.0759691 0.0239087 0.0617278 0.0860852 0.0264788 
0.839279 0.123899 0.0565327 0.612074 0.0447246 0.756005 0.0362881 0.356889 0.95093 
0.0214106 0.0200481 0.0236015 0.619815 0.0491032 0.0227011 0.109313 0.0155616 0.00794836 
0.945868 0.00919634 0.772599 0.647423 0.0180158 0.0117526 0.0101344 0.0893801 0.0151438 
0.00974654 0.0175948 0.187209 0.740374 0.0251723 0.0265483 0.789245 0.041505 0.0620361 
0.0214148 0.0340319 0.559396 0.0162364 0.388051 0.919235 0.657269 0.174185 0.666067 
0.39052 0.296007 0.689793 0.481535 0.766258 0.46325 0.903688 0.941348 0.967081 
0.142146 0.546938 0.823475 0.764712 0.781096 0.80031 0.669435 0.948627 0.863638 
0.692035 0.948735 0.618855 0.839144 0.783836 0.609939 0.0239734 0.848942 0.171249 
0.0199433 0.572155 0.832008 0.501834 0.951803 0.948627 0.170083 0.530389 0.225685 
0.966341 0.690487 0.0291626 0.431844 0.042145 0.843072 0.60169 0.0384383 0.81263 
0.0517975 0.146328 0.0160523 0.941348 0.0116161 0.02023 0.713351 0.969503 0.221567 
0.627874 0.0673682 0.207594 0.892259 0.282537 0.663529 0.140086 0.912208 0.0293081 
0.1296 0.0115285 0.438818 0.454043 0.0646546 0.0239667 0.0350063 0.0260721 0.0326022 
0.074137 0.0297662 0.0305164 0.0393115 0.0280005 0.0511326 0.0904701 0.0643713 0.152588 
0.0971794 0.318563 0.10032 0.10614 0.256845 0.0509993 0.106936 0.0246175 0.0146789 
0.0134054 0.0146045 0.522006 0.362766 0.341553 0.299001 0.964465 0.754239 0.92493 
0.865683 0.715371 0.587256 0.859781 0.801959 0.912208 0.843072 0.89559 0.667885 
0.686884 0.707846 0.539106 0.640454 0.380344 0.571042 0.196027 0.198799 0.592254 
0.699944 0.0236079 0.0305026 0.0215524 0.0414183 0.0619904 0.0269293 0.020165 0.038721 
0.907116 0.745241 0.877898 0.772206 0.648621 0.577457 0.0276726 0.0313338 0.024695 
0.0287809 0.0915062 0.067049 0.178506 0.138419 0.275815 0.238382 0.125026 0.186824 
0.0954249 0.153999 0.19394 0.270315 0.0125387 0.0181467 0.0133844 0.0198147 0.0142723 
0.0168962 0.0164201 0.0378295 0.261952 0.36075 0.948882 0.770589 0.967995 0.654635 
0.952106 0.736507 0.803949 0.800878 0.68831 0.744115 0.617885 0.660244 0.47691 
0.519067 0.258587 0.322372 0.929393 0.820584 0.0292655 0.0194631 0.0210239 0.0244773 
0.0170767 0.0284197 0.772206 0.907116 0.906399 0.914985 0.292199 0.135959 0.0993869 
0.123128 0.113463 0.150714 0.26054 0.269386 0.0261119 0.0245504 0.0272811 0.0187766 
0.135216 0.0500731 0.4096 0.328171 0.914581 0.700252 0.914724 0.812291 0.899505 
0.798327 0.783836 0.920967 0.787951 0.967795 0.552569 0.524805 0.690267 0.742498 
0.811532 0.962086 0.428704 0.408804 0.0846841 0.0486136 0.0313487 0.0290707 0.0478203 
0.0160814 0.956805 0.832008 0.956058 0.775968 0.227176 0.241267 0.177486 0.226251 
0.0242275 0.0283376 0.0487944 0.0394683 0.567178 0.702241 0.633926 0.571187 0.935151 
0.849124 0.791872 0.86834 0.920774 0.843495 0.531479 0.552559 0.477917 0.396971 
0.472493 0.648255 0.424772 0.344747 0.228717 0.361411 0.410371 0.624143 0.905122 
0.849199 0.336196 0.340581 0.0437297 0.0405795 0.0177793 0.021153 0.0683517 0.0241073 
0.0140473 0.0246915 0.0219347 0.0313427 0.0592026 0.0589536 0.38698 0.558988 0.742947 
0.583635 0.732224 0.72726 0.285195 0.388051 0.0450322 0.0350726 0.0471277 0.0289758 
0.0340766 0.030052 0.11637 0.268497 0.629379 0.50665 0.712292 0.521713 0.705298 
0.627045 0.735175 0.564087 0.492592 0.536822 0.529782 0.71981 0.0875474 0.572521 
0.590239 0.692478 0.475699 0.56126 0.0356078 0.0515311 0.0247592 0.0338156 0.0305996 
0.0901658 0.0339135 0.0423779 0.0426541 0.0408369 0.0464169 0.0312592 0.0577226 0.0486698 
0.112584 0.0900294 0.530955 0.561877 0.0456768 0.055103 0.0729996 0.0686527 0.649175 
0.680804 0.311238 0.471578 0.150272 0.242978 0.633367 0.408011 0.0583361 0.075777 
0.660892 0.604907 0.497771 0.301874 0.744418 0.695992 0.59714 0.525025 0.479653 
0.310955 0.70548 0.626649 0.631575 0.506196 0.327792 0.364934 0.450369 0.379274 
0.285262 0.437418 0.452748 0.447304 0.459184 0.411786 0.483114 0.351241 0.406984 
0.270218 0.40486 0.30127 0.230738 0.207073 0.306503 0.360361 0.276526 0.247591 
0.375472 0.428288 0.491784 0.273452 0.38266 0.403131 0.370103 0.333549 0.328009 
0.273458 0.435282 0.273606 0.529239 0.458714 0.444166 0.398048 0.529669 0.399176 
0.336822 0.346985 0.137033 0.227596 0.233147 0.274375 0.204629 0.264565 0.0968987 
0.347671 0.338307 0.267831 0.526257 0.464389 0.45119 0.377911 0.259221 0.221764 
0.310341 0.218421 0.362713 0.246141 0.246464 0.268178 0.194218 0.111973 0.238127 
0.182457 0.273739 0.243931 0.178817 0.209164 0.0502222 0.0731685 0.0604907 0.0747743 
0.0334023 0.0508675 0.0601073 0.0825361 0.0418619 0.0827336 0.0208075 0.0127794 0.0128227 
0.0202938 0.00955551 0.00871156 0.63533 0.535423 0.0553418 0.0626839 0.0828525 0.0657048 
0.071457 0.0542157 0.0854702 0.173053 0.0732713 0.0499757 0.106887 0.0865115 0.0670388 
0.0464146 0.210097 0.100221 0.085827 0.0672784 0.0956361 0.0704564 0.0561154 0.0670945 
0.0405387 0.0559063 0.032845 0.0363007 0.0911866 0.1181 0.0799639 0.124943 0.141267 
0.123153 0.110474 0.196068 0.137299 0.0851234 0.147857 0.176654 0.0990917 0.155676 
0.06817 0.0508098 0.049398 0.0496999 0.0665093 0.055292 0.201022 0.198225 0.130918 
0.1165 0.14635 0.169563 0.123231 0.135767 0.114728 0.137726 0.146077 0.120027 
0.0960716 0.0948202 0.148572 0.115535 0.0753947 0.0616561 0.109554 0.0861104 0.0869959 
0.072892 0.0627636 0.0445471 0.0112289 0.0251837 0.017569 0.0100722 0.011235 0.0154315 
0.511902 0.333915 0.23968 0.31589 0.244546 0.214076 0.177636 0.155034 0.143195 
0.123168 0.408379 0.435141 0.443259 0.359951 0.151756 0.296095 0.326872 0.317007 
0.119456 0.0891732 0.506329 0.598286 0.445722 0.44614 0.326828 0.300584 0.503507 
0.450139 0.388428 0.415792 0.226486 0.33167 0.366956 0.355956 0.360046 0.318907 
0.212638 0.302836 0.35467 0.294105 0.0900698 0.0578009 0.105451 0.304234 0.29781 
0.240856 0.245241 0.261211 0.254006 0.381917 0.237886 0.366912 0.204847 0.340135 
0.192403 0.256502 0.161138 0.152337 0.309469 0.26569 0.369851 0.29985 0.420589 
0.304339 0.411633 0.414837 0.577591 0.449657 0.470156 0.401702 0.385772 0.296118 
0.461119 0.628887 0.726326 0.505015 0.518645 0.573301 0.460238 0.6402 0.219371 
0.240444 0.42176 0.335603 0.514661 0.460238 0.313681 0.361726 0.0338507 0.0421312 
0.0254653 0.0320829 0.0190837 0.0293396 0.0404423 0.0596205 0.035304 0.0423091 0.751341 
0.638576 0.793523 0.660588 0.623886 0.569167 0.166086 0.133449 0.118236 0.109967 
0.155559 0.178069 0.192966 0.141058 0.0641729 0.0679429 0.0219516 0.0155342 0.293049 
0.358548 0.401637 0.406229 0.283794 0.224874 0.194101 0.190001 0.262201 0.334171 
0.172231 0.273498 0.135675 0.171462 0.111286 0.134421 0.0901048 0.0800903 0.119304 
0.174486 0.196251 0.210925 0.190498 0.244994 0.15637 0.189476 0.242101 0.226199 
0.101979 0.0759182 0.117781 0.0981337 0.134544 0.155194 0.129262 0.161304 0.209665 
0.163514 0.112186 0.0789989 0.1994 0.249415 0.170457 0.250254 0.101223 0.0915939 
0.0616378 0.0760207 0.141251 0.19637 0.154213 0.17091 0.051012 0.0339787 0.0407477 
0.0388102 0.406211 0.481096 0.0210329 0.0297061 0.0368613 0.0410486 0.192035 0.162196 
0.163288 0.212602 0.0893817 0.107725 0.0790934 0.0699012 0.0590947 0.0729004 0.070025 
0.102353 0.204812 0.214695 0.316635 0.260391 0.130164 0.165572 0.236361 0.20905 
0.0585807 0.0774457 0.0848229 0.0645513 0.132961 0.153295 0.0822523 0.104391 0.127594 
0.18759 0.0754 0.0560847 0.0346351 0.0518143 0.0764926 0.049649 0.0917501 0.122995 
0.0985477 0.175581 0.144164 0.115355 0.132304 0.18359 0.153745 0.177374 0.193481 
0.149227 0.127214 0.162514 0.0997179 0.0983246 0.0977145 0.109293 0.197756 0.156571 
0.0111609 0.0155795 0.0996661 0.11476 0.0217114 0.0215243 0.0205575 0.0209867 0.0210013 
0.0193811 0.0190416 0.0198562 0.0221781 0.021821 0.0220238 0.023576 0.0223442 0.0245419 
0.021949 0.0202553 0.0229511 0.0211942 0.0233368 0.0222596 0.0221665 -0.0203216 -0.357941 
-0.037252 0.0113817 -0.0294855 -0.171813 -0.118194 -0.71721 -0.172989 -0.0804078 -0.564709 
-0.248223 0.00722268 -0.00578302 -0.44619 -0.143937 0.0072917 -0.512617 -0.156869 -0.100868 
-0.0325325 -0.0496635 -0.0510178 -0.1318 -0.255428 -0.0635465 -0.309187 -0.43526 -0.58309 
-0.00956753 -0.395 -0.460564 -0.668904 -0.494843 -0.882939 -0.260836 -0.0836653 -0.849577 
-0.241638 -0.686503 -0.323412 -0.65051 -0.106089 -0.572374 0.00212861 -0.281068 -0.00355398 
-0.466926 -0.214679 -0.729414 -0.221328 -0.727579 -0.0535475 -0.608981 -0.798729 -0.509362 
-0.191178 -0.401924 -0.373094 -0.177906 -0.594611 -0.414893 -0.306831 -0.434766 -0.513833 
-0.773312 -0.620978 -0.846712 -0.760685 -0.793375 -0.779931 -0.687358 -0.769275 -0.539585 
-0.653446 -0.517615 -0.607778 -0.695008 -0.686294 -0.311935 -0.24848 -0.0791697 -0.095329 
-0.149535 -0.220497 -0.220588 -0.297524 -0.335799 -0.360234 -0.615423 -0.528784 -0.411282 
-0.344074 -0.805431 -0.727826 -0.763977 -0.725442 -0.487257 -0.574391 -0.0894884 -0.157267 
-0.288869 -0.353527 -0.0690061 -0.118166 0.0171155 0.00124691 0.0137139 0.00423137 0.00625513 
0.0153441 0.0105133 0.000942035 0.00927452 0.00158391 0.0103576 0.0125308 0.000430276 0.0122173 
0.000565621 0.00751291 0.000219511 0.0149683 0.0097494 0.0107708 0.0127403 0.00607223 0.00788273 
0.00808615 0.00361173 0.00536752 0.0045919 0.00188138 0.0105118 0.000851335 0.00668345 0.00195308 
0.00252501 0.00644225 0.00612826 0.00501688 0.00527406 0.0105382 0.000933625 0.00444636 0.00363 
0.00177657 0.00168902 0.00457945 0.00369671 0.00147664 0.00241411 0.00104156 0.00774975 0.00114433 
0.00820062 0.00659568 0.00632882 0.000707143 0.0023177 0.000594055 0.000230344 0.0114054 0.000400936 
0.000111755 0.00287395 0.000916229 0.00742831 0.000373373 0.000725461 0.00225074 0.00128813 0.00435275 
0.00111282 0.00125806 0.00599312 0.00359832 0.00669779 0.00323832 0.00444145 0.00776271 0.00489533 
0.0020364 0.00259772 0.00360598 0.00186494 0.00191752 0.00575461 0.00296494 0.00338667 0.00257935 
0.00383923 0.00918878 0.00929462 0.00723314 0.145409 0.204489 0.265485 0.232127 0.484022 
0.337407 0.178283 0.640552 0.411172 0.280583 0.095984 0.278572 0.159255 0.748607 
0.221702 0.354273 0.397526 0.479725 0.34005 0.882251 0.862083 0.891011 0.264504 
0.928129 0.847072 0.0998773 1.27717 0.527801 0.879543 1.05749 0.924852 1.89351 
0.962204 1.51579 1.09139 0.98179 0.927476 0.821248 1.06124 0.394685 1.06856 
1.60224 0.796376 0.472053 0.741769 0.549924 0.59725 0.318223 0.554509 0.194848 
0.558906 0.196468 0.42432 0.388862 0.42109 0.352095 1.07731 0.135102 0.673877 
0.752427 0.618333 0.227071 1.66828 0.635913 0.983479 0.962179 1.04466 1.22714 
0.48436 0.780402 0.836978 1.08993 1.35351 0.471072 1.2291 0.990994 1.09155 
1.64549 1.68651 0.730791 1.95422 0.79746 0.79446 1.87373 1.46429 0.829433 
1.17447 1.65861 1.86342 1.91376 1.47878 0.297976 0.286058 0.322426 1.08044 
0.458892 1.10623 1.17445 0.620142 1.02555 1.38447 1.44867 1.46353 0.691593 
1.36504 1.06224 1.15827 0.311316 0.900898 1.4701 0.929698 1.72741 1.37264 
0.967983 0.462823 1.3513 0.699308 1.08764 0.775317 0.538188 0.42377 1.80543 
1.79448 1.82911 1.00338 1.131 0.787596 0.950921 1.79403 1.62814 1.58378 
1.29192 0.999747 0.826488 0.96639 0.888524 1.07558 1.10832 0.240869 0.496802 
0.431872 0.308575 0.824128 0.51482 0.214322 0.346136 0.159196 0.334664 0.615871 
0.460724 0.713126 0.598611 0.681722 0.665437 0.746208 0.695184 0.895926 1.04552 
0.844152 0.587399 1.36789 1.18816 1.48446 1.09708 1.22007 1.27115 1.06401 
0.866675 1.09651 1.59706 0.597955 0.769511 1.61201 1.74599 0.292091 0.491519 
0.615578 0.720427 0.341967 0.346625 0.436249 0.52388 0.492651 0.204567 1.72931 
1.38859 1.62991 1.47583 1.8143 1.6116 1.92039 1.74255 1.87422 1.68935 
1.02345 1.08974 0.8401 0.921592 0.734836 0.749258 0.935949 1.05025 1.80337 
1.78605 1.71888 1.59556 1.72345 1.60384 1.90112 1.57521 0.915984 0.825555 
0.882295 0.961885 1.03709 0.993101 1.0323 1.02205 1.07216 1.08231 1.106 
1.09124 0.245367 0.353752 0.385344 0.527287 0.661583 0.679007 0.846847 0.727424 
0.776781 0.70209 0.934273 1.1833 1.07431 1.23081 0.881062 0.785666 1.26607 
0.967597 1.04297 0.781409 0.886222 0.732396 1.02885 1.06316 0.972024 1.20734 
1.62304 1.63042 0.436034 0.604702 0.521313 0.731595 0.527395 0.32961 0.244376 
0.388894 1.73182 1.57752 1.8947 1.66938 0.661846 0.752275 1.01309 1.07777 
0.986617 1.01207 1.45271 1.06975 1.57151 1.79108 1.93892 1.81063 1.67029 
1.81072 1.10124 1.05863 1.12872 1.10137 0.643093 0.757523 0.914786 0.909466 
0.989407 0.741422 0.785606 0.905198 0.8055 0.739802 0.915961 0.888168 0.623625 
0.694951 1.38602 1.26946 1.20038 0.938294 1.36817 1.21967 1.41039 1.27115 
0.507512 0.634031 0.770903 0.693793 0.331144 0.423809 0.321007 0.454902 0.555554 
0.604531 0.633402 0.581574 0.646459 0.739436 0.504795 0.429736 0.801164 0.836609 
0.713462 0.802789 1.00643 1.04582 1.0231 1.05591 0.974117 1.01147 1.08812 
1.03562 1.61557 1.53723 1.49559 1.54752 1.48988 1.42884 0.977996 0.960784 
0.602158 0.818658 1.06278 0.856623 1.18869 1.19281 0.977083 0.890258 0.815926 
0.684339 0.88496 1.05882 0.816784 0.632769 0.945385 0.785913 1.01458 1.12372 
1.05017 0.895417 1.34402 1.56814 0.969973 1.04906 0.835641 0.97983 0.948171 
1.40539 1.11725 1.1785 1.45146 1.57743 1.41237 1.3982 1.53689 1.77726 