# vtk DataFile Version 3.0
vtk output
ASCII
DATASET POLYDATA
POINTS 3 float
0 0 0 
1 0 0
1 1 0
0 1 0 
POLYGONS 2 8
3 0 1 2 
3 0 2 3
CELL_DATA 2
COLOR_SCALARS Colors 3
1 0 0
0 1 0  

