# vtk DataFile Version 3.0
vtk output
ASCII
DATASET POLYDATA
POINTS 29766 float
0.675 1.73472e-18 -0.685501 0.678067 -0.0122684 -0.666575 0.677939 -0.0117573 -0.644206 
0.675 1.6263e-18 -0.661337 0.681134 -0.0245369 -0.647649 0.680879 -0.0235145 -0.627075 
0.680623 -0.0224921 -0.606502 0.677812 -0.0112461 -0.621837 0.675 1.51788e-18 -0.637172 
0.687268 -0.0490737 -0.609796 0.686757 -0.047029 -0.592814 0.683818 -0.0352718 -0.609945 
0.684201 -0.0368053 -0.628723 0.686246 -0.0449843 -0.575831 0.683435 -0.0337382 -0.591167 
0.685224 -0.0408948 -0.541866 0.682668 -0.0306711 -0.553611 0.683051 -0.0322046 -0.572389 
0.685735 -0.0429395 -0.558849 0.680112 -0.0204474 -0.565355 0.680367 -0.0214698 -0.585929 
0.675 1.30104e-18 -0.588844 0.675 1.40946e-18 -0.613008 0.677684 -0.0107349 -0.599468 
0.677556 -0.0102237 -0.5771 0.677812 -0.0112461 -0.621837 0.699537 -0.0981475 -0.534092 
0.698515 -0.094058 -0.524291 0.695575 -0.0823008 -0.541422 0.69647 -0.0858791 -0.553018 
0.697492 -0.0899685 -0.51449 0.694681 -0.0787225 -0.529826 0.691869 -0.0674764 -0.545161 
0.692636 -0.0705435 -0.558553 0.693403 -0.0736106 -0.571944 0.695448 -0.0817896 -0.494889 
0.692892 -0.0715659 -0.506633 0.693786 -0.0751442 -0.518229 0.69647 -0.0858791 -0.50469 
0.690336 -0.0613422 -0.518378 0.691102 -0.0644093 -0.531769 0.688419 -0.0536744 -0.545309 
0.68778 -0.0511185 -0.530122 0.689058 -0.0562303 -0.560496 0.690336 -0.0613422 -0.59087 
0.689697 -0.0587863 -0.575683 0.691358 -0.0654317 -0.455686 0.689313 -0.0572527 -0.460248 
0.690208 -0.060831 -0.471845 0.69238 -0.0695211 -0.465486 0.687268 -0.0490737 -0.464811 
0.688035 -0.0521409 -0.478203 0.688802 -0.055208 -0.491594 0.691102 -0.0644093 -0.483441 
0.693403 -0.0736106 -0.475287 0.683179 -0.0327158 -0.473936 0.68369 -0.0347606 -0.490919 
0.685863 -0.0434507 -0.484561 0.685224 -0.0408948 -0.469374 0.684201 -0.0368053 -0.507901 
0.686502 -0.0460066 -0.499748 0.687141 -0.0485626 -0.514935 0.684713 -0.0388501 -0.524884 
0.689569 -0.0582751 -0.504986 0.694425 -0.0777001 -0.485088 0.691997 -0.0679876 -0.495037 
0.675 8.6736e-19 -0.492187 0.675 9.7578e-19 -0.516351 0.677173 -0.00869014 -0.509993 
0.677045 -0.00817896 -0.487624 0.675 1.0842e-18 -0.540515 0.6773 -0.00920133 -0.532362 
0.679601 -0.0184027 -0.524208 0.679345 -0.0173803 -0.503635 0.679089 -0.0163579 -0.483062 
0.677556 -0.0102237 -0.5771 0.677428 -0.00971251 -0.554731 0.675 1.19262e-18 -0.56468 
0.679856 -0.019425 -0.544782 0.6773 -0.00920133 -0.532362 0.682284 -0.0291375 -0.534833 
0.681901 -0.027604 -0.516055 0.681134 -0.0245369 -0.478499 0.681518 -0.0260704 -0.497277 
0.724074 -0.196295 -0.382683 0.721007 -0.184027 -0.377445 0.718195 -0.17278 -0.395801 
0.721007 -0.184027 -0.401609 0.71794 -0.171758 -0.372207 0.715384 -0.161534 -0.389992 
0.712828 -0.151311 -0.407778 0.715384 -0.161534 -0.414156 0.71794 -0.171758 -0.420535 
0.711806 -0.147221 -0.361731 0.709761 -0.139042 -0.378375 0.712572 -0.150288 -0.384184 
0.714873 -0.15949 -0.366969 0.707716 -0.130863 -0.39502 0.710272 -0.141087 -0.401399 
0.703627 -0.114505 -0.42831 0.705671 -0.122684 -0.435829 0.707972 -0.131886 -0.418614 
0.705671 -0.122684 -0.411665 0.707716 -0.130863 -0.443349 0.710272 -0.141087 -0.425563 
0.711806 -0.147221 -0.458387 0.714873 -0.15949 -0.439461 0.712572 -0.150288 -0.432512 
0.709761 -0.139042 -0.450868 0.699537 -0.0981475 -0.340778 0.698515 -0.094058 -0.355141 
0.701326 -0.105304 -0.36095 0.702604 -0.110416 -0.346016 0.697492 -0.0899685 -0.369505 
0.700048 -0.100192 -0.375884 0.702604 -0.110416 -0.382262 0.704138 -0.11655 -0.366758 
0.705671 -0.122684 -0.351254 0.695448 -0.0817896 -0.398232 0.697492 -0.0899685 -0.405751 
0.69877 -0.0950804 -0.390817 0.69647 -0.0858791 -0.383868 0.699537 -0.0981475 -0.413271 
0.701071 -0.104282 -0.397767 0.703371 -0.113483 -0.404716 0.701582 -0.106326 -0.42079 
0.70516 -0.12064 -0.388641 0.708738 -0.134953 -0.356492 0.706949 -0.127796 -0.372567 
0.693658 -0.074633 -0.450553 0.69238 -0.0695211 -0.441322 0.694936 -0.0797448 -0.459783 
0.69647 -0.0858791 -0.444279 0.694936 -0.0797448 -0.435619 0.693403 -0.0736106 -0.426959 
0.697492 -0.0899685 -0.478244 0.696214 -0.0848567 -0.469014 0.699537 -0.0981475 -0.461599 
0.698003 -0.0920133 -0.452939 0.699793 -0.0991699 -0.436865 0.701582 -0.106326 -0.444954 
0.698003 -0.0920133 -0.428775 0.694425 -0.0777001 -0.412595 0.696214 -0.0848567 -0.420685 
0.702604 -0.110416 -0.515166 0.701326 -0.105304 -0.505935 0.705671 -0.122684 -0.49624 
0.704138 -0.11655 -0.48758 0.702604 -0.110416 -0.47892 0.700048 -0.100192 -0.496705 
0.706949 -0.127796 -0.469224 0.708738 -0.134953 -0.477314 0.70516 -0.12064 -0.461134 
0.703371 -0.113483 -0.453044 0.701071 -0.104282 -0.470259 0.69877 -0.0950804 -0.487475 
0.675 0 -0.298873 0.675 1.0842e-19 -0.323037 0.677939 -0.0117573 -0.32705 
0.678067 -0.0122684 -0.304111 0.675 2.1684e-19 -0.347201 0.677812 -0.0112461 -0.349989 
0.680623 -0.0224921 -0.352777 0.680879 -0.0235145 -0.331063 0.681134 -0.0245369 -0.309349 
0.675 4.3368e-19 -0.39553 0.677556 -0.0102237 -0.395868 0.677684 -0.0107349 -0.372929 
0.675 3.2526e-19 -0.371366 0.680112 -0.0204474 -0.396205 0.680367 -0.0214698 -0.374491 
0.685224 -0.0408948 -0.396881 0.685735 -0.0429395 -0.377617 0.683051 -0.0322046 -0.376054 
0.682668 -0.0306711 -0.396543 0.686246 -0.0449843 -0.358353 0.683435 -0.0337382 -0.355565 
0.687268 -0.0490737 -0.319826 0.684201 -0.0368053 -0.314587 0.683818 -0.0352718 -0.335076 
0.686757 -0.047029 -0.339089 0.677173 -0.00869014 -0.464685 0.675 7.5894e-19 -0.468023 
0.679345 -0.0173803 -0.461348 0.679601 -0.0184027 -0.439634 0.6773 -0.00920133 -0.441746 
0.675 6.5052e-19 -0.443859 0.68369 -0.0347606 -0.454672 0.681518 -0.0260704 -0.45801 
0.684201 -0.0368053 -0.435409 0.681901 -0.027604 -0.437521 0.682284 -0.0291375 -0.417032 
0.684713 -0.0388501 -0.416145 0.679856 -0.019425 -0.41792 0.675 5.421e-19 -0.419694 
0.677428 -0.00971251 -0.418807 0.690208 -0.060831 -0.44466 0.691102 -0.0644093 -0.429071 
0.688802 -0.055208 -0.431184 0.688035 -0.0521409 -0.447997 0.692892 -0.0715659 -0.397894 
0.691997 -0.0679876 -0.413483 0.690336 -0.0613422 -0.397556 0.689569 -0.0582751 -0.41437 
0.687141 -0.0485626 -0.415257 0.68778 -0.0511185 -0.397219 0.686502 -0.0460066 -0.433296 
0.685863 -0.0434507 -0.451335 0.69647 -0.0858791 -0.33554 0.695575 -0.0823008 -0.351128 
0.693403 -0.0736106 -0.330302 0.692636 -0.0705435 -0.347115 0.691869 -0.0674764 -0.363929 
0.694681 -0.0787225 -0.366717 0.689697 -0.0587863 -0.343102 0.690336 -0.0613422 -0.325064 
0.689058 -0.0562303 -0.361141 0.688419 -0.0536744 -0.37918 0.691102 -0.0644093 -0.380743 
0.693786 -0.0751442 -0.382306 0.678139 -0.0125569 -0.285104 0.675 0 -0.280193 
0.681278 -0.0251138 -0.290015 0.681423 -0.0256907 -0.270681 0.678211 -0.0128454 -0.266097 
0.675 0 -0.261514 0.687557 -0.0502276 -0.299836 0.684418 -0.0376707 -0.294926 
0.687845 -0.0513815 -0.279847 0.684634 -0.0385361 -0.275264 0.688422 -0.0536892 -0.239869 
0.685067 -0.0402669 -0.235941 0.68485 -0.0394015 -0.255602 0.688134 -0.0525353 -0.259858 
0.681711 -0.0268446 -0.232012 0.681567 -0.0262677 -0.251346 0.675 0 -0.224155 
0.675 0 -0.242834 0.678284 -0.0131338 -0.24709 0.678356 -0.0134223 -0.228083 
0.700114 -0.100455 -0.319479 0.696975 -0.0878983 -0.314569 0.700691 -0.102763 -0.298181 
0.69748 -0.0899176 -0.293597 0.694268 -0.0770722 -0.289014 0.693835 -0.0753414 -0.309658 
0.701845 -0.107378 -0.255583 0.698489 -0.0939561 -0.251655 0.697984 -0.0919368 -0.272626 
0.701268 -0.105071 -0.276882 0.695134 -0.0805338 -0.247726 0.694701 -0.078803 -0.26837 
0.691417 -0.0656692 -0.264114 0.691778 -0.0671115 -0.243798 0.691057 -0.0642268 -0.284431 
0.690696 -0.0627845 -0.304747 0.704153 -0.116609 -0.170389 0.700508 -0.102033 -0.16777 
0.700004 -0.100014 -0.188741 0.703576 -0.114302 -0.191688 0.696864 -0.0874569 -0.165151 
0.696432 -0.0857261 -0.185795 0.695999 -0.0839954 -0.206439 0.699499 -0.0979946 -0.209712 
0.702999 -0.111994 -0.212986 0.689576 -0.0583046 -0.159913 0.689288 -0.0571508 -0.179902 
0.69286 -0.0714385 -0.182848 0.69322 -0.0728808 -0.162532 0.688999 -0.0559969 -0.199891 
0.692499 -0.0699961 -0.203165 0.692139 -0.0685538 -0.223481 0.688711 -0.054843 -0.21988 
0.695566 -0.0822646 -0.227082 0.702422 -0.109686 -0.234285 0.698994 -0.0959753 -0.230684 
0.675 0 -0.149437 0.675 0 -0.168116 0.678572 -0.0142877 -0.171063 
0.678644 -0.0145762 -0.152056 0.675 0 -0.186796 0.6785 -0.0139992 -0.190069 
0.682 -0.0279985 -0.193343 0.682144 -0.0285754 -0.174009 0.682288 -0.0291523 -0.154675 
0.678428 -0.0137108 -0.209076 0.675 0 -0.205475 0.681855 -0.0274215 -0.212678 
0.685283 -0.0411323 -0.216279 0.685499 -0.0419977 -0.196617 0.685932 -0.0437285 -0.157294 
0.685716 -0.0428631 -0.176955 0.725228 -0.20091 -0.358765 0.722089 -0.188354 -0.353855 
0.726382 -0.205526 -0.334848 0.72317 -0.192681 -0.330264 0.719959 -0.179835 -0.325681 
0.718949 -0.175797 -0.348944 0.728689 -0.214757 -0.287012 0.725334 -0.201334 -0.283084 
0.724252 -0.197007 -0.306674 0.727536 -0.210141 -0.31093 0.721978 -0.187912 -0.279155 
0.720969 -0.183874 -0.302418 0.715267 -0.161068 -0.271298 0.714402 -0.157606 -0.293906 
0.717685 -0.17074 -0.298162 0.718623 -0.17449 -0.275226 0.713536 -0.154144 -0.316514 
0.716748 -0.16699 -0.321098 0.71581 -0.16324 -0.344033 0.712671 -0.150683 -0.339122 
0.733305 -0.233218 -0.191342 0.729661 -0.218642 -0.188722 0.728579 -0.214315 -0.212313 
0.732151 -0.228603 -0.215259 0.726017 -0.204066 -0.186103 0.725007 -0.200028 -0.209366 
0.723998 -0.195989 -0.232629 0.727497 -0.209988 -0.235903 0.730997 -0.223988 -0.239177 
0.718729 -0.174914 -0.180865 0.717863 -0.171452 -0.203473 0.721435 -0.18574 -0.20642 
0.722373 -0.18949 -0.183484 0.716998 -0.167991 -0.226082 0.720498 -0.18199 -0.229355 
0.71956 -0.17824 -0.252291 0.716133 -0.164529 -0.24869 0.722988 -0.191951 -0.255892 
0.729843 -0.219372 -0.263095 0.726416 -0.205661 -0.259493 0.707148 -0.128589 -0.194634 
0.707797 -0.131185 -0.173008 0.706498 -0.125993 -0.21626 0.709998 -0.139992 -0.219534 
[...]
POINT_DATA 29766
SCALARS surface_field double
LOOKUP_TABLE default
0.220817 0.179706 0.155254 0.191289 0.14021 0.120409 0.102603 0.133294 0.164827 
0.0657416 0.0540729 0.0866988 0.102248 0.0436144 0.0727207 0.0260551 0.0490971 0.0602176 
0.0342974 0.0724684 0.0866647 0.120227 0.14121 0.113656 0.0961757 0.133294 -0.067137 
-0.0665285 -0.0377768 -0.0357572 -0.0656154 -0.0393351 -0.0123865 -0.00812019 -0.00319289 -0.0629266 
-0.0411507 -0.040453 -0.0644106 -0.0190642 -0.016024 0.00888843 0.00333634 0.0152547 0.0306181 
0.0224819 -0.0544438 -0.0401318 -0.04092 -0.0569227 -0.0258548 -0.0249044 -0.0234749 -0.041365 
-0.0591706 0.00256581 0.00713776 -0.00888287 -0.0116199 0.0125371 -0.00550578 -0.00144702 0.0188226 
-0.0215378 -0.0611759 -0.0414482 0.0586841 0.0710855 0.0551308 0.0447611 0.0853557 0.0670621 
0.0488252 0.0391507 0.0307629 0.0961757 0.080695 0.101674 0.0598939 0.0670621 0.0392697 
0.0306489 0.0166956 0.023151 -0.281762 -0.263784 -0.241892 -0.258065 -0.245633 -0.225575 
-0.204896 -0.219287 -0.23355 -0.208951 -0.192621 -0.209143 -0.227344 -0.175813 -0.190397 
-0.140629 -0.151134 -0.171073 -0.158494 -0.161527 -0.183559 -0.181922 -0.208181 -0.195934 
-0.171795 -0.135021 -0.126181 -0.142792 -0.153491 -0.11704 -0.131758 -0.146473 -0.15942 
-0.171991 -0.0977596 -0.108577 -0.120363 -0.107575 -0.119337 -0.133123 -0.145839 -0.130025 
-0.161165 -0.190489 -0.176038 -0.0705774 -0.0659384 -0.0750362 -0.0903282 -0.0837161 -0.0769695 
-0.0833701 -0.0793041 -0.103107 -0.0967953 -0.113689 -0.122179 -0.105083 -0.087567 -0.0963721 
-0.0973906 -0.094245 -0.126573 -0.120996 -0.115218 -0.0908519 -0.14683 -0.154734 -0.138761 
-0.13054 -0.109251 -0.0872231 0.00797897 0.0108896 -0.00553138 -0.00916325 0.014532 -0.00122405 
-0.0172181 -0.0222033 -0.0265697 0.0244747 0.00981584 0.00385678 0.0190199 -0.00505038 -0.0115303 
-0.0353464 -0.0429082 -0.0271244 -0.0201094 -0.0498412 -0.0334306 -0.0620692 -0.0442141 -0.0391034 
-0.0562083 0.0341091 0.0479808 0.0201148 0.0106695 0.0248207 0.0388131 -0.00820779 0.00600628 
-0.0180674 -0.00363012 -0.012306 -0.0270893 0.0023162 0.0310264 0.0167645 -0.0513932 -0.0620941 
-0.0473108 -0.0369168 -0.0819688 -0.0722734 -0.066292 -0.0570866 -0.0420207 -0.0507458 -0.0326314 
-0.0225185 -0.116613 -0.108506 -0.0982979 -0.0909347 -0.0831731 -0.100051 -0.0734937 -0.0801068 
-0.0664291 -0.0588638 -0.0749728 -0.0912164 -0.0115295 0.00616356 -0.0295072 -0.0320677 -0.0135433 
0.00467713 -0.0662035 -0.0477415 -0.0699083 -0.0508663 -0.0762478 -0.0561124 -0.0536404 -0.0732391 
-0.0362489 -0.0342998 0.0025246 0.00347728 -0.01525 -0.016692 -0.141716 -0.122652 -0.147859 
-0.128172 -0.108594 -0.10369 -0.158768 -0.137918 -0.133239 -0.153521 -0.117188 -0.113074 
-0.093062 -0.0966188 -0.0891619 -0.0848632 -0.176763 -0.153824 -0.150171 -0.17261 -0.13101 
-0.127858 -0.124532 -0.146333 -0.168258 -0.0859597 -0.0837997 -0.105719 -0.108372 -0.0814859 
-0.102902 -0.0998832 -0.078982 -0.120991 -0.163661 -0.142264 0.000498686 0.000798798 -0.019805 
-0.0205481 0.00121749 -0.018935 -0.039462 -0.0407999 -0.0420023 -0.0179083 0.00178253 -0.0379567 
-0.058327 -0.0603255 -0.0638211 -0.0621455 -0.293798 -0.275164 -0.304925 -0.285691 -0.266264 
-0.25635 -0.324894 -0.304599 -0.295469 -0.315256 -0.284081 -0.275476 -0.242553 -0.23504 
-0.255319 -0.263384 -0.226992 -0.246685 -0.237391 -0.218326 -0.358331 -0.336346 -0.328972 
-0.350578 -0.314044 -0.307076 -0.299805 -0.32127 -0.342471 -0.268718 -0.26263 -0.284944 
-0.291482 -0.25628 -0.278124 -0.27096 -0.24961 -0.292164 -0.333936 -0.313171 -0.195126 
-0.199776 -0.190263 -0.2123 -0.217669 -0.22281 -0.179698 -0.185139 -0.200667 -0.206653 
-0.228158 -0.221633 -0.234322 -0.245809 -0.240187 -0.160851 -0.18002 -0.187423 -0.167622 
-0.19919 -0.207226 -0.21468 -0.194281 -0.173881 -0.413744 -0.389375 -0.383029 -0.407147 
-0.3644 -0.358346 -0.352259 -0.376639 -0.400496 -0.312988 -0.30763 -0.333184 -0.338907 
-0.302254 -0.327437 -0.358346 -0.29141 -0.315828 -0.321656 -0.296852 -0.339944 -0.34613 
-0.386982 -0.39378 -0.370197 -0.363686 -0.206827 -0.203171 -0.229456 -0.233565 -0.199513 
-0.225343 -0.251128 -0.255682 -0.260229 -0.192156 -0.217067 -0.221217 -0.195845 -0.241959 
-0.246558 -0.271794 -0.266764 -0.276791 -0.286733 -0.281768 -0.204259 -0.18076 -0.227771 
-0.232593 -0.208614 -0.184638 -0.274597 -0.251236 -0.280313 -0.256514 -0.261679 -0.285906 
-0.237312 -0.188427 -0.212873 -0.365795 -0.343454 -0.373027 -0.35035 -0.327296 -0.320767 
-0.357081 -0.380075 -0.333676 -0.309928 -0.303929 -0.297794 3.81043e-66 1.21749e-07 -0.0240364 
-0.0244591 1.94799e-06 -0.0236119 -0.0477319 -0.0485959 -0.0494584 3.11678e-05 -0.0227362 -0.0231812 
9.8617e-06 -0.0459763 -0.0468615 -0.0936558 -0.0954586 -0.0709739 -0.0696349 -0.0972455 -0.0722974 
-0.100806 -0.0749308 -0.0736146 -0.0990259 -0.0485959 -0.0211908 0.00029232 -0.0430976 -0.0441111 
-0.0217567 0.000157787 -0.0879985 -0.0653827 -0.0899449 -0.0668573 -0.0682681 -0.0918236 -0.0450645 
7.60934e-05 -0.0222661 -0.15733 -0.160725 -0.136933 -0.134024 -0.167294 -0.164037 -0.142547 
-0.139766 -0.115675 -0.11798 -0.113322 -0.110896 -0.180101 -0.176909 -0.203171 -0.153468 
-0.150746 -0.148024 -0.173715 -0.0990259 -0.12476 -0.12701 -0.0972455 -0.12251 -0.150746 
-0.120253 -0.145294 -0.170514 -0.0240364 1.21749e-07 -0.0485959 -0.0477319 -0.0236119 1.94799e-06 
-0.0990259 -0.0736146 -0.0972455 -0.0722974 -0.0485959 -0.0936558 -0.0696349 -0.0709739 -0.0954586 
-0.0459763 -0.0468615 3.11678e-05 9.8617e-06 -0.0231812 -0.0227362 -0.203171 -0.176909 -0.199513 
-0.173715 -0.148024 -0.150746 -0.192156 -0.167294 -0.170514 -0.195845 -0.142547 -0.145294 
-0.0954586 -0.120253 -0.11798 -0.0972455 -0.12251 -0.12476 -0.0990259 -0.150746 -0.176763 
-0.153824 -0.15733 -0.18076 -0.13101 -0.134024 -0.136933 -0.160725 -0.184638 -0.0859597 
-0.0879985 -0.110896 -0.108372 -0.0899449 -0.113322 -0.115675 -0.0918236 -0.139766 -0.188427 
-0.164037 0.000498686 0.00029232 -0.0211908 -0.0205481 0.000157787 -0.0217567 -0.0441111 -0.0430976 
-0.0420023 -0.0222661 7.60934e-05 -0.0450645 -0.0682681 -0.0668573 -0.0638211 -0.0653827 -0.407147 
-0.383029 -0.400496 -0.376639 -0.352259 -0.358346 -0.386982 -0.363686 -0.370197 -0.39378 
-0.339944 -0.34613 -0.29141 -0.296852 -0.321656 -0.315828 -0.302254 -0.327437 -0.333184 
-0.30763 -0.358346 -0.358331 -0.336346 -0.343454 -0.365795 -0.314044 -0.320767 -0.327296 
-0.35035 -0.373027 -0.268718 -0.274597 -0.297794 -0.291482 -0.280313 -0.303929 -0.309928 
-0.285906 -0.333676 -0.380075 -0.357081 -0.204259 -0.199776 -0.208614 -0.232593 -0.227771 
-0.22281 -0.217067 -0.212873 -0.241959 -0.237312 -0.261679 -0.266764 -0.256514 -0.245809 
-0.251236 -0.229456 -0.203171 -0.255682 -0.251128 -0.225343 -0.281768 -0.276791 -0.271794 
-0.246558 -0.221217 -0.281762 -0.263784 -0.275164 -0.293798 -0.245633 -0.25635 -0.266264 
-0.285691 -0.304925 -0.208951 -0.218326 -0.237391 -0.227344 -0.226992 -0.246685 -0.242553 
-0.263384 -0.255319 -0.23504 -0.284081 -0.275476 -0.324894 -0.315256 -0.295469 -0.304599 
-0.135021 -0.141716 -0.160851 -0.153491 -0.147859 -0.167622 -0.187423 -0.18002 -0.171991 
-0.158768 -0.179698 -0.173881 -0.153521 -0.200667 -0.194281 -0.21468 -0.221633 -0.207226 
-0.190489 -0.19919 -0.195126 -0.17261 -0.217669 -0.2123 -0.190263 -0.168258 -0.26263 
-0.240187 -0.25628 -0.234322 -0.228158 -0.24961 -0.206653 -0.163661 -0.185139 -0.350578 
-0.328972 -0.342471 -0.32127 -0.299805 -0.307076 -0.313171 -0.333936 -0.292164 -0.27096 
-0.278124 -0.284944 0.00797897 0.00616356 -0.0115295 -0.00916325 0.00467713 -0.0135433 -0.0320677 
-0.0295072 -0.0265697 0.0025246 -0.016692 -0.01525 0.00347728 -0.0362489 -0.0342998 -0.0762478 
-0.0732391 -0.0536404 -0.0561124 -0.0699083 -0.0508663 -0.0620692 -0.0442141 -0.0477415 -0.0662035 
-0.019805 0.000798798 -0.0407999 -0.039462 -0.018935 0.00121749 -0.0837997 -0.0621455 -0.0814859 
-0.0603255 -0.058327 -0.078982 -0.0379567 0.00178253 -0.0179083 -0.150171 -0.146333 -0.124532 
-0.127858 -0.137918 -0.142264 -0.117188 -0.120991 -0.0998832 -0.0966188 -0.102902 -0.105719 
-0.116613 -0.122652 -0.0982979 -0.10369 -0.108594 -0.128172 -0.0848632 -0.0801068 -0.0891619 
-0.093062 -0.113074 -0.133239 -0.00553138 0.0108896 -0.0222033 -0.0172181 -0.00122405 0.014532 
-0.0562083 -0.0391034 -0.0498412 -0.0334306 -0.0353464 -0.0201094 -0.0271244 -0.0429082 -0.00505038 
-0.0115303 0.0244747 0.0190199 0.00385678 0.00981584 -0.126181 -0.108506 -0.11704 -0.100051 
-0.0831731 -0.0909347 -0.0977596 -0.0819688 -0.0912164 -0.107575 -0.066292 -0.0749728 -0.0588638 
-0.0507458 -0.0664291 -0.0734937 -0.0544438 -0.0401318 -0.0513932 -0.0659384 -0.0258548 -0.0369168 
-0.0473108 -0.0620941 -0.0769695 0.00256581 -0.00820779 -0.0225185 -0.0116199 -0.0180674 -0.0326314 
-0.0420207 -0.0270893 -0.0570866 -0.087567 -0.0722734 0.0586841 0.0479808 0.0341091 0.0447611 
0.0388131 0.0248207 0.0106695 0.0201148 0.0307629 0.0167645 0.0310264 0.0023162 -0.012306 
-0.00363012 0.0166956 0.00600628 -0.258065 -0.241892 -0.23355 -0.219287 -0.204896 -0.225575 
-0.181922 -0.171795 -0.195934 -0.208181 -0.161527 -0.183559 -0.140629 -0.158494 -0.171073 
-0.151134 -0.175813 -0.190397 -0.209143 -0.192621 -0.067137 -0.0665285 -0.094245 -0.0973906 
-0.0656154 -0.0908519 -0.115218 -0.120996 -0.126573 -0.0629266 -0.0833701 -0.0872231 -0.0644106 
-0.103107 -0.109251 -0.13054 -0.122179 -0.138761 -0.154734 -0.14683 -0.0705774 -0.0569227 
-0.0837161 -0.0903282 -0.0750362 -0.0591706 -0.108577 -0.0963721 -0.119337 -0.105083 -0.113689 
-0.130025 -0.0967953 -0.0611759 -0.0793041 -0.142792 -0.15942 -0.146473 -0.131758 -0.176038 
-0.161165 -0.145839 -0.133123 -0.120363 0.220817 0.191289 0.155254 0.179706 0.164827 
0.133294 0.102603 0.120409 0.14021 0.120227 0.0961757 0.113656 0.14121 0.0724684 
0.0866647 0.0260551 0.0342974 0.0602176 0.0490971 0.0436144 0.0727207 0.0657416 0.102248 
0.0866988 0.0540729 0.0551308 0.0710855 0.0391507 0.0488252 0.0670621 0.0853557 0.00713776 
0.023151 0.0125371 0.0306489 0.0392697 0.0188226 0.0598939 0.101674 0.080695 -0.04092 
-0.041365 -0.0234749 -0.0249044 -0.0411507 -0.0414482 -0.0190642 -0.0215378 -0.00144702 0.00333634 
-0.00550578 -0.00888287 -0.0357572 -0.0377768 -0.00319289 -0.00812019 -0.0123865 -0.0393351 0.0224819 
0.0306181 0.0152547 0.00888843 -0.016024 -0.040453 0.775748 0.770219 0.733235 0.736837 
0.764725 0.729658 0.695817 0.697602 0.69941 0.753847 0.722584 0.726107 0.759268 
0.692316 0.694055 0.634685 0.633175 0.663086 0.663023 0.6317 0.663174 0.62885 
0.663426 0.663287 0.630258 0.732534 0.708763 0.712177 0.737806 0.685601 0.687243 
0.68891 0.715618 0.743116 0.641063 0.639417 0.662994 0.663038 0.637805 0.662977 
0.662987 0.636227 0.690601 0.748463 0.719087 0.558858 0.551585 0.572595 0.578575 
0.544429 0.566704 0.589683 0.594229 0.598842 0.53046 0.555187 0.560902 0.537387 
0.580786 0.585202 0.610305 0.607279 0.613378 0.619668 0.616499 0.503874 0.533191 
0.538561 0.510354 0.563768 0.567927 0.572149 0.544017 0.516944 0.598482 0.595643 
0.601368 0.6043 0.576436 0.523646 0.549559 0.691746 0.659487 0.665494 0.696708 
0.628487 0.635445 0.642456 0.671544 0.701708 0.570146 0.578739 0.606536 0.598716 
0.587409 0.614418 0.604982 0.630372 0.622364 0.596157 0.656631 0.649518 0.711828 
0.706749 0.677639 0.683777 0.467284 0.47816 0.501764 0.491343 0.489196 0.512321 
0.536383 0.526379 0.516488 0.511754 0.533846 0.523014 0.500393 0.556736 0.546502 
0.570876 0.580442 0.561405 0.542746 0.552029 0.56718 0.546829 0.588138 0.577553 
0.555927 0.53497 0.631925 0.609716 0.622866 0.599862 0.590104 0.613885 0.567086 
0.523279 0.544816 0.7273 0.702452 0.722104 0.696184 0.671013 0.678281 0.689959 
0.716947 0.663796 0.638443 0.646578 0.654776 0.310624 0.331077 0.346694 0.326971 
0.352522 0.367281 0.382673 0.363063 0.344191 0.398522 0.411144 0.388755 0.374994 
0.424188 0.403042 0.451574 0.433233 0.417864 0.437662 0.415422 0.398716 0.381351 
0.362309 0.380202 0.398132 0.48405 0.475783 0.492489 0.468891 0.458765 0.448884 
0.509889 0.501101 0.489891 0.479266 0.458124 0.470457 0.446131 0.423141 0.434472 
0.537322 0.523308 0.511909 0.527997 0.496014 0.509539 0.480742 0.496159 0.483133 
0.465932 0.500771 0.518853 0.444283 0.456866 0.422311 0.436443 0.450889 0.46968 
0.416872 0.401343 0.432808 0.449159 0.465654 0.482728 0.282592 0.267573 0.298571 
0.257307 0.242712 0.229159 0.333531 0.31554 0.289774 0.272981 0.21347 0.199422 
0.234363 0.249833 0.186676 0.220103 0.164877 0.195038 0.20701 0.175178 0.416352 
0.393953 0.368895 0.347243 0.326865 0.372705 0.283761 0.263963 0.303972 0.324751 
0.245686 0.284591 0.266561 0.228873 0.307722 0.352575 0.148325 0.133173 0.161808 
0.178198 0.120014 0.147299 0.177222 0.193046 0.210632 0.0992945 0.123578 0.134583 
0.108753 0.150562 0.163085 0.194449 0.180454 0.209957 0.245771 0.227043 0.0776573 
0.0950332 0.100008 0.0808171 0.115174 0.121956 0.130068 0.106371 0.0854172 0.146922 
0.138358 0.156752 0.167909 0.13958 0.0915464 0.114201 0.64115 0.608285 0.593008 
0.559644 0.527896 0.576855 0.503922 0.469831 0.51351 0.54728 0.437742 0.481547 
0.379315 0.422826 0.451337 0.407591 0.469073 0.497721 0.546821 0.518149 0.353222 
0.318514 0.352953 0.387592 0.286616 0.320919 0.357496 0.389611 0.42413 0.230821 
0.264291 0.291397 0.25742 0.300138 0.327699 0.366404 0.33845 0.396414 0.462889 
0.428551 0.196552 0.165566 0.230057 0.251397 0.21696 0.184996 0.305137 0.266208 
0.328148 0.288421 0.312479 0.352855 0.274731 0.206713 0.23951 0.439938 0.464742 
0.416187 0.391863 0.490801 0.44191 0.395963 0.370697 0.346976 0.148936 0.115107 
0.134155 0.168211 0.0855064 0.104187 0.124568 0.154887 0.189138 0.0381972 0.0557568 
0.0781162 0.059935 0.0750135 0.0980022 0.118945 0.143194 0.119669 0.0960487 0.170722 
0.146722 0.236229 0.211788 0.177373 0.201681 -0.0141967 -0.00017195 0.00913771 -0.00591127 
0.015419 0.0257987 0.0390805 0.0214456 0.00546062 0.0517455 0.0643691 0.0441741 0.0326866 
0.07968 0.0584597 0.0756987 0.097823 0.0554296 0.0201018 0.0369264 0.136974 0.120875 
0.155393 0.128044 0.110656 0.0957155 0.199637 0.176243 0.170654 0.148002 0.121893 
0.143785 0.102841 0.0727143 0.0864924 0.320962 0.286233 0.290751 0.256044 0.224546 
0.254515 0.227883 0.262528 0.196639 0.168654 0.196126 0.225689 0.00914439 0.0128318 
0.00427007 -0.000830867 0.0175358 0.0104673 0.00503067 -0.00264322 -0.00914315 0.0306935 0.0268283 
0.0179274 0.023428 0.0245512 0.0140387 0.0252919 0.0116727 0.0119055 0.0239946 -0.000327142 
0.00138062 -0.0200727 -0.015616 -0.00774226 -0.0108605 0.0641351 0.0627806 0.0669755 0.0508234 
0.0497245 0.0501513 0.0775123 0.0714011 0.0580393 0.0535579 0.0378186 0.0406913 0.0367491 
0.0395307 0.0373601 0.106987 0.0831019 0.0726961 0.095201 0.0416664 0.0613745 0.0339906 
0.052343 0.0454909 0.0285784 0.0643806 0.0854111 -0.0195766 -0.00665605 -0.0222305 -0.0104858 
0.00271284 0.00777761 -0.011831 -0.0223366 6.43087e-05 0.0134863 0.0174937 0.0238438 -0.00294914 
0.00787698 -0.0121449 -0.0149194 -0.00489052 0.00674613 -0.0249733 -0.0195418 -0.0295115 -0.0231789 
-0.0375928 -0.0296634 -0.0265466 -0.0337105 -0.0198493 -0.0174825 0.00485374 0.00574165 -0.00666774 
-0.00829305 -0.0237771 -0.0278375 -0.0325581 -0.0354315 -0.0357857 -0.0292833 -0.0479042 -0.0487734 
-0.0423974 -0.0405856 -0.0472696 -0.0417704 -0.0388309 -0.0435034 -0.0337636 -0.0282748 -0.0709318 
-0.0690897 -0.0647206 -0.0660315 -0.0650118 -0.061157 -0.0569337 -0.0599003 -0.0605862 -0.0503729 
-0.0475503 -0.0554069 -0.05875 -0.0444923 -0.051767 -0.0478071 -0.0411798 -0.0523141 -0.0545572 
-0.0545958 0.00228609 0.00279761 -0.0123729 -0.0135036 0.00339053 -0.0111346 -0.0240514 -0.0259142 
-0.0276355 -0.00977822 0.00407303 -0.0220342 -0.0325469 -0.0352145 -0.0399665 -0.0376824 0.122036 
0.0912758 0.0976698 0.069688 0.0453262 0.0644283 0.0559641 0.0327374 0.0502164 0.0756927 
0.012607 0.0280884 -0.0187015 -0.00656836 0.00919703 -0.00451139 0.00690408 0.0244442 0.0413244 
0.0217978 -0.00314174 -0.0196065 -0.0089297 0.00892137 -0.0338158 -0.0243373 -0.0135052 0.00327937 
0.0227094 -0.0553972 -0.0478493 -0.0373079 -0.0457515 -0.039266 -0.0276762 -0.0167728 -0.029575 
-0.00122351 0.0383473 0.0171306 -0.0650365 -0.0705012 -0.0589218 -0.0548469 -0.061694 -0.0677745 
-0.0445582 -0.0521115 -0.0386372 -0.0471798 -0.0396899 -0.0300481 -0.0483099 -0.0627404 -0.0559726 
-0.0169427 -0.007175 -0.0186949 -0.0270253 0.00568513 -0.00743039 -0.0193178 -0.029162 -0.036213 
-0.0512316 -0.0618731 -0.0599253 -0.0489487 -0.0714091 -0.0696771 -0.067247 -0.057196 -0.0457959 
-0.0863855 -0.0848084 -0.0780298 -0.0796454 -0.0826869 -0.0757951 -0.076597 -0.0692196 -0.0728797 
-0.0799681 -0.0600058 -0.0640479 -0.0365064 -0.0416807 -0.053604 -0.0490644 -0.0946907 -0.0929283 
-0.0940405 -0.0957492 -0.0908789 -0.0919871 -0.0909159 -0.0929687 -0.0946145 -0.0858087 -0.0867152 
-0.0895567 -0.0885152 -0.0854342 -0.0884178 -0.0851867 -0.0820337 -0.0877737 -0.0914366 -0.089842 
-0.0753599 -0.0753245 -0.07314 -0.0778403 -0.079655 -0.0792456 -0.0619796 -0.0686733 -0.067664 
-0.0738296 -0.0782652 -0.0725156 -0.0819231 -0.0827293 -0.0834271 -0.013601 -0.0288573 -0.0225735 
-0.036785 -0.0490806 -0.0420336 -0.0434888 -0.0301724 -0.0550435 -0.0647479 -0.0593948 -0.0530878 
0.000269183 0.000377732 -0.0191707 -0.0197546 0.000516208 -0.0185445 -0.0356376 -0.0366794 -0.0376616 
0.000903547 -0.0171392 -0.0178697 0.000689664 -0.0333419 -0.0345281 -0.0596637 -0.061568 -0.0491328 
-0.0475556 -0.0633348 -0.0506063 -0.0665089 -0.0532855 -0.0519871 -0.0649775 -0.0145363 0.00184814 
-0.0292275 -0.0307019 -0.0154807 0.00147635 -0.0529784 -0.0420818 -0.0553843 -0.0440427 -0.0458629 
-0.0576075 -0.0320699 0.0011637 -0.0163455 -0.0730391 -0.076599 -0.0717201 -0.0685244 -0.0826652 
-0.0797985 -0.0772573 -0.0746233 -0.0672147 -0.069582 -0.0646332 -0.0618184 -0.091314 -0.0895266 
-0.0855245 -0.0837582 -0.0818043 -0.0875047 -0.0755781 -0.0772628 -0.0737468 -0.0717537 -0.0796439 
-0.0852255 -0.0200009 0.000207937 -0.0380741 -0.0384591 -0.0202293 0.00015779 -0.0672005 -0.0538456 
-0.0678343 -0.0543652 -0.0689559 -0.0553021 -0.0548491 -0.0684172 -0.0391602 -0.03882 8.51711e-05 
0.000117312 -0.0204421 -0.0206416 -0.0958563 -0.0923539 -0.0968384 -0.0932518 -0.0872662 -0.0864494 
-0.0983412 -0.0946897 -0.0940249 -0.0976597 -0.0886281 -0.0879884 -0.079466 -0.0800657 -0.0788052 
-0.0780741 -0.100036 -0.096548 -0.0961782 -0.0997341 -0.0905787 -0.0901631 -0.0897054 -0.095753 
-0.0993612 -0.070786 -0.0703669 -0.0815795 -0.082013 -0.0699254 -0.0811149 -0.0806127 -0.0694568 
-0.089197 -0.0989024 -0.0952611 1.68239e-05 2.69487e-05 -0.0211781 -0.0213419 4.1074e-05 -0.0210078 
-0.0397899 -0.0400847 -0.0403693 -0.0208295 6.01365e-05 -0.0394826 -0.0557288 -0.0561329 -0.0568882 
-0.0565182 -0.0551709 -0.0651752 -0.0582192 -0.0677222 -0.0763216 -0.0741831 -0.0620919 -0.0709301 
-0.0696106 -0.0604907 -0.0790102 -0.0779056 -0.0919398 -0.091102 -0.0851466 -0.0860938 -0.0899319 
-0.0837986 -0.0819872 -0.0883781 -0.0636474 -0.0720841 -0.0722744 -0.0638201 -0.0799445 -0.0801164 
-0.0800542 -0.0721888 -0.0636698 -0.0928634 -0.0929166 -0.0870857 -0.0869618 -0.0928051 -0.0870124 
-0.086698 -0.0924929 -0.079705 -0.0631213 -0.071764 -0.100983 -0.101201 -0.100675 -0.0998769 
-0.100114 -0.100239 -0.0997137 -0.100259 -0.098972 -0.0995051 -0.0968417 -0.0963091 -0.097176 
-0.0973772 -0.0973447 -0.0970613 -0.0961051 -0.0973044 -0.0981405 -0.0931498 -0.0945035 -0.0955427 
-0.0982488 -0.0990157 -0.0570418 -0.06604 -0.0669537 -0.0580419 -0.0746739 -0.0754757 -0.0762677 
-0.0678593 -0.0590361 -0.0896062 -0.0901276 -0.0833053 -0.0826362 -0.0906376 -0.0839636 -0.091596 
-0.0852143 -0.0846038 -0.0911303 -0.0777826 -0.0770414 -0.0609504 -0.0600123 -0.0687465 -0.0695986 
-0.101156 -0.101076 -0.101387 -0.10133 -0.100987 -0.101434 -0.0996737 -0.0994767 -0.0992689 
-0.100774 -0.101484 -0.101468 -0.100888 -0.100017 -0.099856 -0.0963146 -0.0966282 -0.0959769 
-0.0952579 -0.0956231 -0.0994767 -0.101346 -0.10028 -0.100275 -0.100239 -0.101433 -0.100477 
-0.092678 -0.0973001 -0.092389 -0.0971366 -0.0969069 -0.0920214 -0.100149 -0.100639 -0.101476 
-0.0632186 -0.0716747 -0.0625933 -0.0710961 -0.0790829 -0.079586 -0.0703918 -0.0618226 -0.0784715 