# vtk DataFile Version 4.0
vtk output
ASCII
DATASET POLYDATA
POINTS 2972 float
0 2 0 0.707107 1.84776 0.292893 0.765367 1.84776 0 
0.382683 0.92388 0 0.353553 0.92388 0.146447 0 1 0 
1.30656 1.41421 0.541196 1.41421 1.41421 0 0.707107 0.707107 0 
0.653282 0.707107 0.270598 1.70711 0.765367 0.707107 1.84776 0.765367 0 
0.92388 0.382683 0 0.853553 0.382683 0.353553 1.87529 0.626984 0 
1.73254 0.626984 0.717641 1.84776 0 0.765367 2 0 0 
1 0 0 0.92388 0 0.382683 1.97247 -0.138383 0 
1.82233 -0.138384 0.754833 1.70711 -0.765367 0.707107 1.84776 -0.765367 0 
0.92388 -0.382683 0 0.853553 -0.382683 0.353553 1.76937 -0.882688 0 
1.63468 -0.882689 0.677107 1.30656 -1.41421 0.541196 1.41421 -1.41421 0 
0.707107 -0.707107 0 0.653282 -0.707107 0.270598 1.2969 -1.49259 0 
1.19818 -1.4926 0.496303 0.707107 -1.84776 0.292893 0.765367 -1.84776 0 
0.382683 -0.92388 0 0.353553 -0.92388 0.146447 0.626978 -1.87529 0 
0.579252 -1.87529 0.239934 0 -2 0 0 -1 0 
0.541196 1.84776 0.541196 0.270598 0.92388 0.270598 1 1.41421 1 
0.5 0.707107 0.5 1.30656 0.765367 1.30656 0.653282 0.382683 0.653282 
1.31776 0.685745 1.31776 1.40681 0.0526032 1.40681 1.51368 0 1.26535 
1.41421 0 1.41421 0.707107 0 0.707107 1.32749 -0.616555 1.32749 
1.48387 -0.765367 1.0412 1.30656 -0.765367 1.30656 0.653282 -0.382683 0.653282 
1.05086 -1.30656 1.05086 1.11732 -1.41421 0.824416 1 -1.41421 1 
0.5 -0.707107 0.5 0.541196 -1.84776 0.541196 0.270598 -0.92388 0.270598 
0.526854 -1.85179 0.526854 0.292893 1.84776 0.707107 0.146447 0.92388 0.353553 
0.541196 1.41421 1.30656 0.270598 0.707107 0.653282 0.699796 0.793958 1.68946 
0.860395 0.765367 1.60468 0.707107 0.765367 1.70711 0.353553 0.382683 0.853553 
0.73058 0.457002 1.76378 0.758972 0.0840146 1.83232 0.819191 0 1.8118 
0.765367 0 1.84776 0.382683 0 0.92388 0.732897 -0.426564 1.76937 
0.828857 -0.765367 1.62576 0.707107 -0.765367 1.70711 0.353553 -0.382683 0.853553 
0.541196 -1.41421 1.30656 0.270598 -0.707107 0.653282 0.468468 -1.5412 1.13098 
0.522291 -1.84776 0.553828 0.292893 -1.84776 0.707107 0.146447 -0.92388 0.353553 
0 1.84776 0.765367 0 0.92388 0.382683 0 1.41421 1.41421 
0 0.707107 0.707107 0 0.931278 1.7369 0.0377018 0.92388 1.73434 
0.26277 0.765367 1.79549 0 0.793958 1.82866 0.180815 0.765367 1.81179 
0 0.765367 1.84776 0 0.382683 0.92388 0.351155 0.707107 1.7895 
0.563485 0.382694 1.81179 0.626979 0 1.87529 0.286825 0.749511 1.79386 
0.604421 0.135958 1.85273 0 0.457001 1.9091 0 0.0840138 1.98329 
0.0634895 0 1.98737 0 0 2 0 0 1 
0.499999 -0.765367 1.74831 0.56349 -0.382678 1.8118 0.313018 -0.765367 1.7855 
0.351145 -0.707114 1.7895 0.262771 -0.765367 1.79549 0.527845 -0.437138 1.80805 
0 -0.42654 1.91516 0.14362 -0.765367 1.81919 0 -0.765367 1.84776 
0 -0.382683 0.92388 0.455409 -1.41421 1.32362 0 -1.32702 1.47247 
0 -1.41421 1.41421 0 -0.950433 1.7241 0.0377024 -0.92388 1.73434 
0 -0.931278 1.7369 0.186058 -0.819395 1.77465 0 -0.707107 0.707107 
0 -1.84776 0.765367 0 -0.92388 0.382683 -0.292893 1.84776 0.707107 
-0.146447 0.92388 0.353553 -0.541196 1.41421 1.30656 -0.270598 0.707107 0.653282 
-0.630443 1.06518 1.52203 -0.664683 0.931278 1.60469 -0.628874 0.92388 1.61675 
-0.444339 0.765367 1.75938 -0.699796 0.793957 1.68946 -0.526294 0.765367 1.74308 
-0.707107 0.765367 1.70711 -0.353553 0.382683 0.853553 -0.360394 0.70711 1.78766 
-0.172739 0.382667 1.88952 -0.138379 0 1.97247 -0.421491 0.749511 1.76708 
-0.150586 0.135953 1.943 -0.73058 0.457 1.76378 -0.758972 0.0840146 1.83232 
-0.701877 0 1.86039 -0.765367 0 1.84776 -0.382683 0 0.92388 
-0.207106 -0.765367 1.80656 -0.172743 -0.382688 1.88952 -0.394081 -0.765367 1.76937 
-0.360378 -0.707098 1.78767 -0.444341 -0.765367 1.75938 -0.204241 -0.437146 1.87242 
-0.732896 -0.426573 1.76937 -0.563498 -0.765367 1.73568 -0.707107 -0.765367 1.70711 
-0.353553 -0.382683 0.853553 -0.0448919 -1.41421 1.40528 -0.552156 -1.37135 1.33302 
-0.541196 -1.41421 1.30656 -0.630443 -1.06518 1.52203 -0.169357 -0.967249 1.67918 
-0.474521 -1.03206 1.57517 -0.659786 -0.95043 1.59287 -0.628878 -0.923881 1.61675 
-0.664683 -0.931278 1.60469 -0.507241 -0.819397 1.71076 -0.270598 -0.707107 0.653282 
-0.199401 -1.84776 0.725704 -0.292893 -1.84776 0.707107 -0.146447 -0.92388 0.353553 
-0.180803 -1.90602 0.436498 -0.541196 1.84776 0.541196 -0.270598 0.92388 0.270598 
-1 1.41421 1 -0.5 0.707107 0.5 -1.11199 1.17719 1.11199 
-1.16491 1.06518 1.16491 -1.22817 0.931278 1.22817 -1.19971 0.92388 1.25302 
-1.0838 0.765367 1.45541 -1.29305 0.793958 1.29305 -1.15327 0.765367 1.40899 
-1.30656 0.765367 1.30656 -0.653282 0.382683 0.653282 -1.01706 0.707104 1.51367 
-0.882689 0.382699 1.67957 -0.882688 0 1.76937 -1.06563 0.749511 1.47126 
-0.882688 0.13596 1.73747 -1.34993 0.457003 1.34993 -1.40239 0.0840189 1.40239 
-1.36038 0 1.45018 -1.41421 0 1.41421 -0.707107 0 0.707107 
-0.882686 -0.765367 1.58979 -0.882687 -0.382678 1.67958 -1.0412 -0.765367 1.48387 
-1.01707 -0.707116 1.51366 -1.08379 -0.765367 1.45541 -0.905244 -0.437137 1.65173 
-1.35422 -0.426537 1.35422 -1.18481 -0.765367 1.38792 -1.30656 -0.765367 1.30656 
-0.653282 -0.382683 0.653282 -0.602845 -1.41421 1.26537 -1.11199 -1.17719 1.11199 
-1 -1.41421 1 -0.7898 -1.10225 1.38633 -1.16491 -1.06518 1.16491 
-0.799063 -0.96725 1.48655 -1.0412 -1.03207 1.27367 -1.21912 -0.950434 1.21912 
-1.1997 -0.923879 1.25303 -1.22817 -0.931278 1.22817 -1.1233 -0.819395 1.38643 
-0.5 -0.707107 0.5 -0.796896 -1.60613 0.796896 -0.541196 -1.84776 0.541196 
-0.270598 -0.92388 0.270598 -0.158507 -1.95541 0.158507 -0.707107 1.84776 0.292893 
-0.353553 0.92388 0.146447 -1.30656 1.41421 0.541196 -0.653282 0.707107 0.270598 
-1.40406 1.25627 0.581581 -1.45288 1.17719 0.601803 -1.52203 1.06518 0.630443 
-1.60469 0.931278 0.664683 -1.5879 0.92388 0.698535 -1.55826 0.765367 0.929871 
-1.68946 0.793958 0.699796 -1.60468 0.765367 0.860395 -1.70711 0.765367 0.707107 
-0.853553 0.382683 0.353553 -1.5189 0.707107 1.00923 -1.45824 0.382672 1.21395 
-1.4926 0 1.2969 -1.54755 0.749512 0.951469 -1.48039 0.135957 1.26743 
-1.76378 0.457002 0.73058 -1.83232 0.0840146 0.758972 -1.8118 0 0.819191 
-1.84776 0 0.765367 -0.92388 0 0.382683 -1.42388 -0.765367 1.13099 
-1.45824 -0.382688 1.21394 -1.52979 -0.765367 0.972477 -1.5189 -0.7071 1.00924 
-1.55826 -0.765367 0.929871 -1.46842 -0.437144 1.17958 -1.76937 -0.426564 0.732897 
-1.62576 -0.765367 0.828857 -1.70711 -0.765367 0.707107 -0.853553 -0.382683 0.353553 
-1.40406 -1.25627 0.581581 -1.30656 -1.41421 0.541196 -1.45288 -1.17719 0.601803 
-1.2602 -1.10225 0.978564 -1.52203 -1.06518 0.630443 -1.30711 -0.967249 1.0676 
-1.44935 -1.03206 0.778275 -1.59286 -0.950431 0.659786 -1.5879 -0.92388 0.698534 
-1.60469 -0.931278 0.664683 -1.56836 -0.819396 0.85102 -0.653282 -0.707107 0.270598 
-0.882683 -1.72078 0.365619 -0.707107 -1.84776 0.292893 -0.353553 -0.92388 0.146447 
-0.147693 -1.9682 0.0611763 -0.765367 1.84776 0 -0.382683 0.92388 0 
-1.41421 1.41421 0 -0.707107 0.707107 0 -1.4926 1.29689 0 
-1.51974 1.25627 0 -1.57258 1.17719 0 -1.64743 1.06518 0 
-1.7369 0.931278 0 -1.73434 0.92388 0.0377018 -1.79549 0.765367 0.26277 
-1.82866 0.793958 0 -1.81179 0.765367 0.180815 -1.84776 0.765367 0 
-0.92388 0.382683 0 -1.7895 0.707107 0.351155 -1.81179 0.382694 0.563485 
-1.87529 0 0.626979 -1.79386 0.749511 0.286825 -1.85273 0.135958 0.604421 
-1.9091 0.457001 0 -1.98329 0.0840138 0 -1.98737 0 0.0634895 
-2 0 0 -1 0 0 -1.74831 -0.765367 0.499999 
-1.8118 -0.382678 0.56349 -1.7855 -0.765367 0.313018 -1.7895 -0.707114 0.351145 
-1.79549 -0.765367 0.262771 -1.80805 -0.437138 0.527845 -1.91516 -0.42654 0 
-1.81919 -0.765367 0.14362 -1.84776 -0.765367 0 -0.92388 -0.382683 0 
-1.4926 -1.29689 0 -1.41421 -1.41421 0 -1.51974 -1.25627 0 
-1.57258 -1.17719 0 -1.53876 -1.10225 0.421812 -1.64743 -1.06518 0 
-1.61617 -0.967249 0.486125 -1.63686 -1.03207 0.164383 -1.7241 -0.950433 0 
-1.73434 -0.92388 0.0377024 -1.7369 -0.931278 0 -1.77465 -0.819395 0.186058 
-0.707107 -0.707107 0 -0.882684 -1.76937 0 -0.765367 -1.84776 0 
-0.382683 -0.92388 0 -0.138379 -1.97247 0 -0.707107 1.84776 -0.292893 
-0.353553 0.92388 -0.146447 -1.30656 1.41421 -0.541196 -0.653282 0.707107 -0.270598 
-1.37898 1.2969 -0.571194 -1.40406 1.25627 -0.581581 -1.45288 1.17719 -0.601803 
-1.52203 1.06518 -0.630443 -1.60469 0.931278 -0.664683 -1.61675 0.92388 -0.628874 
-1.75938 0.765367 -0.444339 -1.68946 0.793957 -0.699796 -1.74308 0.765367 -0.526294 
-1.70711 0.765367 -0.707107 -0.853553 0.382683 -0.353553 -1.78766 0.70711 -0.360394 
-1.88952 0.382667 -0.172739 -1.97247 0 -0.138379 -1.76708 0.749511 -0.421491 
-1.943 0.135953 -0.150586 -1.76378 0.457 -0.73058 -1.83232 0.0840146 -0.758972 
-1.86039 0 -0.701877 -1.84776 0 -0.765367 -0.92388 0 -0.382683 
-1.80656 -0.765367 -0.207106 -1.88952 -0.382688 -0.172743 -1.76937 -0.765367 -0.394081 
-1.78767 -0.707098 -0.360378 -1.75938 -0.765367 -0.444341 -1.87242 -0.437146 -0.204241 
-1.76937 -0.426573 -0.732896 -1.73568 -0.765367 -0.563498 -1.70711 -0.765367 -0.707107 
-0.853553 -0.382683 -0.353553 -1.37898 -1.2969 -0.571194 -1.30656 -1.41421 -0.541196 
-1.40406 -1.25627 -0.581581 -1.45288 -1.17719 -0.601803 -1.58305 -1.10225 -0.199149 
-1.52203 -1.06518 -0.630443 -1.67918 -0.967249 -0.169357 -1.57517 -1.03206 -0.474521 
-1.59287 -0.95043 -0.659786 -1.61675 -0.923881 -0.628878 -1.60469 -0.931278 -0.664683 
-1.71076 -0.819397 -0.507241 -0.653282 -0.707107 -0.270598 -0.815494 -1.76937 -0.337788 
-0.707107 -1.84776 -0.292893 -0.353553 -0.92388 -0.146447 -0.127846 -1.97247 -0.0529553 
-0.541196 1.84776 -0.541196 -0.270598 0.92388 -0.270598 -1 1.41421 -1 
-0.5 0.707107 -0.5 -1.07462 1.25627 -1.07462 -1.22817 1.27677 -0.82064 
-1.11199 1.17719 -1.11199 -1.16491 1.06518 -1.16491 -1.22817 0.931278 -1.22817 
-1.25302 0.92388 -1.19971 -1.45541 0.765367 -1.0838 -1.29305 0.793958 -1.29305 
-1.40899 0.765367 -1.15327 -1.30656 0.765367 -1.30656 -0.653282 0.382683 -0.653282 
-1.51367 0.707104 -1.01706 -1.67957 0.382699 -0.882689 -1.76937 0 -0.882688 
-1.47126 0.749511 -1.06563 -1.73747 0.13596 -0.882688 -1.34993 0.457003 -1.34993 
[...]
CELL_DATA 5232
FIELD FieldData 1
potential 1 5232 double
1 1 1 1 1 1 1 1 1 
1 1 1 0 0 0 1 1 1 
1 1 1 1 1 1 1 1 1 
1 1 1 1 1 1 1 1 1 
1 1 1 1 0 0 0 0 0 
0 0 0 0 1 1 1 1 1 
1 1 1 1 1 1 1 1 1 
1 1 1 1 1 1 1 1 1 
1 1 1 1 1 1 1 1 1 
1 1 1 1 1 1 1 0 0 
0 0 0 0 0 0 1 1 1 
1 1 1 1 1 1 1 1 1 
1 1 1 1 1 1 1 1 1 
1 1 1 1 1 1 1 1 1 
1 1 1 1 1 1 1 1 1 
1 1 1 1 1 0 0 0 0 
0 0 0 0 1 1 1 1 1 
1 1 1 1 1 1 1 1 1 
1 1 1 1 1 1 1 1 1 
1 1 1 1 1 1 1 1 1 
1 1 1 1 1 1 1 1 1 
1 1 1 0 0 0 0 0 0 
0 0 1 1 1 1 1 1 1 
1 1 1 1 1 1 1 1 1 
1 1 1 1 1 1 1 1 1 
1 1 1 1 1 1 1 1 1 
1 1 1 1 1 1 1 1 1 
0 0 0 0 0 0 0 0 1 
1 1 1 1 1 1 1 1 1 
1 1 1 1 1 1 1 1 1 
1 1 1 1 0 0 0 0 0 
0 0 0 0 1 1 1 1 1 
1 1 1 1 1 1 1 0 0 
0 1 1 1 1 1 1 1 1 
1 1 1 1 0 0 0 1 1 
1 1 1 1 1 1 1 1 1 
1 1 1 1 1 1 1 1 1 
1 1 1 1 1 0 0 0 0 
0 0 0 0 0 1 1 1 1 
1 1 1 1 1 1 1 1 1 
1 1 1 1 1 1 1 1 1 
1 1 1 1 1 1 1 1 1 
1 1 1 1 1 1 1 1 0 
0 0 0 0 0 0 0 1 1 
1 1 1 1 1 1 1 1 1 
1 1 1 1 1 1 1 1 1 
1 1 1 1 1 1 1 1 1 
1 1 1 1 1 1 1 1 1 
1 1 1 1 1 1 1 1 1 
1 0 0 0 0 0 0 0 0 
1 1 1 1 1 1 1 1 1 
1 1 1 1 1 1 1 1 1 
1 1 1 1 1 1 1 1 1 
1 1 1 1 1 1 1 1 1 
1 1 1 1 1 1 1 1 1 
1 1 1 1 1 0 0 0 0 
0 0 0 0 1 1 1 1 1 
1 1 1 1 1 1 1 1 1 
1 1 1 1 1 1 1 1 1 
1 1 1 1 1 1 1 1 1 
1 1 1 1 1 1 1 1 1 
0 0 0 0 0 0 0 0 1 
1 1 1 1 1 1 1 1 1 
1 1 1 1 1 1 1 1 1 
1 1 1 1 1 1 1 1 0 
0 0 0 0 0 0 0 0 1 
1 1 1 1 1 1 1 1 1 
1 1 0 0 0 1 1 1 1 
1 1 1 1 1 1 1 1 0 
0 0 1 1 1 1 1 1 1 
1 1 1 1 1 1 1 1 1 
1 1 1 1 1 1 1 1 1 
0 0 0 0 0 0 0 0 0 
1 1 1 1 1 1 1 1 1 
1 1 1 1 1 1 1 1 1 
1 1 1 1 1 1 1 1 1 
1 1 1 1 1 1 1 1 1 
1 1 0 0 0 0 0 0 0 
0 1 1 1 1 1 1 1 1 
1 1 1 1 1 1 1 1 1 
1 1 1 1 1 1 1 1 1 
1 1 1 1 1 1 1 1 1 
1 1 1 1 1 1 1 1 1 
1 1 1 1 0 0 0 0 0 
0 0 0 1 1 1 1 1 1 
1 1 1 1 1 1 1 1 1 
1 1 1 1 1 1 1 1 1 
1 1 1 1 1 1 1 1 1 
1 1 1 1 1 1 1 1 1 
1 1 1 1 1 1 1 1 1 
1 1 0 0 0 0 0 0 0 
0 1 1 1 1 1 1 1 1 
1 1 1 1 1 1 1 1 1 
1 1 1 1 1 1 1 1 1 
1 1 1 1 1 1 1 1 1 
1 0 0 0 0 0 0 0 0 
1 1 1 1 1 1 1 1 1 
1 1 1 1 1 1 1 1 1 
1 1 1 1 1 1 1 1 1 
0 0 0 0 0 0 0 0 0 
1 1 1 1 1 1 1 1 1 
1 1 1 1 1 0 0 0 1 
1 1 1 1 1 1 1 1 1 
1 1 0 0 0 1 1 1 1 
1 1 1 1 1 1 1 1 1 
1 1 1 1 1 1 1 1 0 
0 0 0 0 0 0 0 0 1 
1 1 1 1 1 1 1 1 1 
1 1 1 1 1 1 1 1 1 
1 1 1 1 1 1 1 1 1 
1 1 1 1 1 1 1 1 1 
1 1 1 1 1 1 1 1 0 
0 0 0 0 0 0 0 1 1 
1 1 1 1 1 1 1 1 1 
1 1 1 1 1 1 1 1 1 
1 1 1 1 1 1 1 1 1 
1 1 1 1 1 1 1 1 1 
1 1 1 1 1 1 1 1 1 
1 1 1 1 0 0 0 0 0 
0 0 0 1 1 1 1 1 1 
1 1 1 1 1 1 1 1 1 
1 1 1 1 1 1 1 1 1 
1 1 1 1 1 1 1 1 1 
1 1 1 1 1 1 1 1 1 
1 1 1 1 1 1 1 1 1 
1 1 1 1 1 0 0 0 0 
0 0 0 0 1 1 1 1 1 
1 1 1 1 1 1 1 1 1 
1 1 1 1 1 1 1 1 1 
1 1 1 1 1 1 1 1 1 
1 1 1 1 1 1 1 1 1 
1 1 0 0 0 0 0 0 0 
0 1 1 1 1 1 1 1 1 
1 1 1 1 1 1 1 1 1 
1 1 1 1 1 1 1 1 1 
1 0 0 0 0 0 0 0 0 
0 1 1 1 1 1 1 1 1 
1 1 1 1 0 0 0 1 1 
1 1 1 1 1 1 1 1 1 
1 0 0 0 1 1 1 1 1 
1 1 1 1 1 1 1 1 1 
1 1 1 1 1 1 1 1 1 
1 1 0 0 0 0 0 0 0 
0 0 1 1 1 1 1 1 1 
1 1 1 1 1 1 1 1 1 
1 1 1 1 1 1 1 1 1 
1 1 1 1 1 1 1 1 1 
1 1 1 1 1 1 1 1 0 
0 0 0 0 0 0 0 1 1 
1 1 1 1 1 1 1 1 1 
1 1 1 1 1 1 1 1 1 
1 1 1 1 1 1 1 1 1 
1 1 1 1 1 1 1 1 1 
1 1 1 1 1 1 1 1 1 
1 1 1 1 0 0 0 0 0 
0 0 0 1 1 1 1 1 1 
1 1 1 1 1 1 1 1 1 
1 1 1 1 1 1 1 1 1 
1 1 1 1 1 1 1 1 1 
1 1 1 1 1 1 1 1 1 
1 1 1 1 1 1 1 1 1 
1 1 1 1 1 0 0 0 0 
0 0 0 0 1 1 1 1 1 
1 1 1 1 1 1 1 1 1 
1 1 1 1 1 1 1 1 1 
1 1 1 1 1 1 1 1 1 
1 1 1 1 1 1 1 1 1 
1 1 1 1 0 0 0 0 0 
0 0 0 1 1 1 1 1 1 
1 1 1 1 1 1 1 1 1 
1 1 1 1 1 1 1 1 1 
1 1 1 0 0 0 0 0 0 
0 0 0 1 1 1 1 1 1 
1 1 1 1 1 1 0 0 0 
1 1 1 1 1 1 1 1 1 
1 1 1 0 0 0 1 1 1 
1 1 1 1 1 1 1 1 1 
1 1 1 1 1 1 1 1 1 
1 1 1 1 0 0 0 0 0 
0 0 0 0 1 1 1 1 1 
1 1 1 1 1 1 1 1 1 
1 1 1 1 1 1 1 1 1 
1 1 1 1 1 1 1 1 1 
1 1 1 1 1 1 1 1 1 
1 1 1 1 1 1 0 0 0 
0 0 0 0 0 1 1 1 1 
1 1 1 1 1 1 1 1 1 
1 1 1 1 1 1 1 1 1 
1 1 1 1 1 1 1 1 1 
1 1 1 1 1 1 1 1 1 
1 1 1 1 1 1 1 1 1 
1 1 0 0 0 0 0 0 0 
0 1 1 1 1 1 1 1 1 
1 1 1 1 1 1 1 1 1 
1 1 1 1 1 1 1 1 1 
1 1 1 1 1 1 1 1 1 
1 1 1 1 1 1 1 1 1 
1 1 1 1 1 1 1 1 1 
1 1 1 0 0 0 0 0 0 
0 0 1 1 1 1 1 1 1 
1 1 1 1 1 1 1 1 1 
1 1 1 1 1 1 1 1 1 
1 1 1 1 1 1 1 1 1 
1 1 1 1 1 1 1 1 1 
1 1 1 1 1 0 0 0 0 
0 0 0 0 1 1 1 1 1 
1 1 1 1 1 1 1 1 1 
1 1 1 1 1 1 1 1 1 
1 1 1 1 0 0 0 0 0 
0 0 0 0 1 1 1 1 1 
1 1 1 1 1 1 1 0 0 
0 1 1 1 1 1 1 1 1 
1 1 1 1 0 0 0 1 1 
1 1 1 1 1 1 1 1 1 
1 1 1 1 1 1 1 1 1 
1 1 1 1 1 0 0 0 0 
0 0 0 0 0 1 1 1 1 
1 1 1 1 1 1 1 1 1 
1 1 1 1 1 1 1 1 1 
1 1 1 1 1 1 1 1 1 
1 1 1 1 1 1 1 1 1 
1 1 1 1 1 1 1 1 1 
0 0 0 0 0 0 0 0 1 
1 1 1 1 1 1 1 1 1 
1 1 1 1 1 1 1 1 1 
1 1 1 1 1 1 1 1 1 
1 1 1 1 1 1 1 1 1 
1 1 1 1 1 1 1 1 1 
1 1 1 1 1 0 0 0 0 
0 0 0 0 1 1 1 1 1 
1 1 1 1 1 1 1 1 1 
1 1 1 1 1 1 1 1 1 
1 1 1 1 1 1 1 1 1 
1 1 1 1 1 1 1 1 1 
1 1 1 1 1 1 1 1 1 
1 1 1 1 1 1 0 0 0 
0 0 0 0 0 1 1 1 1 
1 1 1 1 1 1 1 1 1 
1 1 1 1 1 1 1 1 1 
1 1 1 1 1 1 1 1 1 
1 1 1 1 1 1 1 1 1 
1 1 1 1 1 1 1 1 1 
1 1 0 0 0 0 0 0 0 
0 1 1 1 1 1 1 1 1 
1 1 1 1 1 1 1 1 1 
1 1 1 1 1 1 1 1 1 
1 0 0 0 0 0 0 0 0 
0 1 1 1 1 1 1 1 1 
1 1 0 0 0 1 1 1 1 
1 1 1 1 1 1 1 1 0 
0 0 1 1 1 1 1 1 1 
1 1 1 1 1 1 1 1 1 
1 1 1 1 1 0 0 0 0 
0 0 0 0 0 1 1 1 1 
1 1 1 1 1 1 1 1 1 
1 1 1 1 1 1 1 1 1 
1 1 1 1 1 1 1 1 1 
1 1 1 1 1 1 1 1 1 
1 1 1 1 1 1 1 1 1 
1 0 0 0 0 0 0 0 0 
1 1 1 1 1 1 1 1 1 
1 1 1 1 1 1 1 1 1 
1 1 1 1 1 1 1 1 1 
1 1 1 1 1 1 1 1 1 
1 1 1 1 1 1 1 1 1 
1 1 1 1 1 1 0 0 0 
0 0 0 0 0 1 1 1 1 
1 1 1 1 1 1 1 1 1 
1 1 1 1 1 1 1 1 1 
1 1 1 1 1 1 1 1 1 
1 1 1 1 1 1 1 1 1 
1 1 1 1 1 1 1 1 1 
1 1 1 1 1 1 1 0 0 
0 0 0 0 0 0 1 1 1 
1 1 1 1 1 1 1 1 1 
1 1 1 1 1 1 1 1 1 
1 1 1 1 1 1 1 1 1 
1 1 1 1 1 1 1 1 1 
1 1 1 1 1 1 1 1 1 
1 1 1 1 0 0 0 0 0 
0 0 0 1 1 1 1 1 1 
1 1 1 1 1 1 1 1 1 
1 1 1 1 1 1 1 1 1 
1 1 1 0 0 0 0 0 0 
0 0 0 1 1 1 1 1 1 
1 1 1 1 0 0 0 1 1 
1 1 1 1 1 1 1 1 1 
1 0 0 0 1 1 1 1 1 
1 1 1 1 1 1 1 1 1 
1 1 1 1 1 1 1 1 1 
1 1 0 0 0 0 0 0 0 
0 0 1 1 1 1 1 1 1 
1 1 1 1 1 1 1 1 1 
1 1 1 1 1 1 1 1 1 
1 1 1 1 1 1 1 1 1 
1 1 1 1 1 1 1 1 1 
1 1 1 1 1 1 1 1 1 
1 1 1 0 0 0 0 0 0 
0 0 1 1 1 1 1 1 1 
1 1 1 1 1 1 1 1 1 
1 1 1 1 1 1 1 1 1 
1 1 1 1 1 1 1 1 1 
1 1 1 1 1 1 1 1 1 
1 1 1 1 1 1 1 1 0 
0 0 0 0 0 0 0 1 1 
1 1 1 1 1 1 1 1 1 
1 1 1 1 1 1 1 1 1 
1 1 1 1 1 1 1 1 1 
1 1 1 1 1 1 1 1 1 
1 1 1 1 1 1 1 1 1 
1 1 1 1 1 1 1 1 1 
0 0 0 0 0 0 0 0 1 
1 1 1 1 1 1 1 1 1 
1 1 1 1 1 1 1 1 1 
1 1 1 1 1 1 1 1 1 
1 1 1 1 1 1 1 1 1 
1 1 1 1 1 1 1 1 1 
1 1 1 1 1 1 1 1 1 
1 1 0 0 0 0 0 0 0 
0 1 1 1 1 1 1 1 1 
1 1 1 1 1 1 1 1 1 
1 1 1 1 1 1 1 1 1 
1 1 1 0 0 0 0 0 0 
0 0 0 1 1 1 1 1 1 
1 1 1 1 0 0 0 1 1 
1 1 1 1 1 1 1 1 1 
1 0 0 0 1 1 1 1 1 
1 1 1 1 1 1 1 1 1 
1 1 1 1 1 1 1 1 1 
1 1 0 0 0 0 0 0 0 
0 0 1 1 1 1 1 1 1 
1 1 1 1 1 1 1 1 1 
1 1 1 1 1 1 1 1 1 
1 1 1 1 1 1 1 1 1 
1 1 1 1 1 1 1 1 1 
1 1 1 1 1 1 1 1 1 
1 0 0 0 0 0 0 0 0 
1 1 1 1 1 1 1 1 1 
1 1 1 1 1 1 1 1 1 
1 1 1 1 1 1 1 1 1 
1 1 1 1 1 1 1 1 1 
1 1 1 1 1 1 1 1 1 
1 1 1 1 1 1 0 0 0 
0 0 0 0 0 1 1 1 1 
1 1 1 1 1 1 1 1 1 
1 1 1 1 1 1 1 1 1 
1 1 1 1 1 1 1 1 1 
1 1 1 1 1 1 1 1 1 
1 1 1 1 1 1 1 1 1 
1 1 1 1 1 1 1 0 0 
0 0 0 0 0 0 1 1 1 
1 1 1 1 1 1 1 1 1 
1 1 1 1 1 1 1 1 1 
1 1 1 1 1 1 1 1 1 
1 1 1 1 1 1 1 1 1 
1 1 1 1 1 1 1 1 1 
1 1 1 1 1 1 1 0 0 
0 0 0 0 0 0 1 1 1 
1 1 1 1 1 1 1 1 1 
1 1 1 1 1 1 1 1 1 
1 1 1 1 1 1 1 1 1 
1 0 0 0 0 0 0 0 0 
0 1 1 1 1 1 1 1 1 
1 1 0 0 0 1 1 1 1 
1 1 1 1 1 1 1 1 0 
0 0 1 1 1 1 1 1 1 
1 1 1 1 1 1 1 1 1 
1 1 1 1 1 1 1 1 1 
0 0 0 0 0 0 0 0 0 
1 1 1 1 1 1 1 1 1 
1 1 1 1 1 1 1 1 1 
1 1 1 1 1 1 1 1 1 
1 1 1 1 1 1 1 1 1 
1 1 1 1 1 1 1 1 1 
1 1 1 1 1 1 0 0 0 
0 0 0 0 0 1 1 1 1 
1 1 1 1 1 1 1 1 1 
1 1 1 1 1 1 1 1 1 
1 1 1 1 1 1 1 1 1 
1 1 1 1 1 1 1 1 1 
1 1 1 1 1 1 1 1 1 
1 1 0 0 0 0 0 0 0 
0 1 1 1 1 1 1 1 1 
1 1 1 1 1 1 1 1 1 
1 1 1 1 1 1 1 1 1 
1 1 1 1 1 1 1 1 1 
1 1 1 1 1 1 1 1 1 
1 1 1 1 1 1 1 1 1 
1 1 1 0 0 0 0 0 0 
0 0 1 1 1 1 1 1 1 
1 1 1 1 1 1 1 1 1 
1 1 1 1 1 1 1 1 1 
1 1 1 1 1 1 1 1 1 
1 1 1 1 1 1 1 1 1 
1 1 1 1 1 1 1 1 1 
1 0 0 0 0 0 0 0 0 
1 1 1 1 1 1 1 1 1 
1 1 1 1 1 1 1 1 1 
1 1 1 1 1 1 1 1 1 
0 0 0 0 0 0 0 0 0 
1 1 1 1 1 1 1 1 1 
1 0 0 0 1 1 1 1 1 
1 1 1 1 1 1 1 0 0 
0 1 1 1 1 1 1 1 1 
1 1 1 1 1 1 1 1 1 
1 1 1 1 0 0 0 0 0 
0 0 0 0 1 1 1 1 1 
1 1 1 1 1 1 1 1 1 
1 1 1 1 1 1 1 1 1 
1 1 1 1 1 1 1 1 1 
1 1 1 1 1 1 1 1 1 
1 1 1 1 1 1 0 0 0 
0 0 0 0 0 1 1 1 1 
1 1 1 1 1 1 1 1 1 
1 1 1 1 1 1 1 1 1 
1 1 1 1 1 1 1 1 1 
1 1 1 1 1 1 1 1 1 
1 1 1 1 1 1 1 1 1 
1 1 0 0 0 0 0 0 0 
0 1 1 1 1 1 1 1 1 
1 1 1 1 1 1 1 1 1 
1 1 1 1 1 1 1 1 1 
1 1 1 1 1 1 1 1 1 
1 1 1 1 1 1 1 1 1 
1 1 1 1 1 1 1 1 1 
1 1 1 0 0 0 0 0 0 
0 0 1 1 1 1 1 1 1 
1 1 1 1 1 1 1 1 1 
1 1 1 1 1 1 1 1 1 
1 1 1 1 1 1 1 1 1 
1 1 1 1 1 1 1 1 1 
1 1 1 1 1 1 1 0 0 
0 0 0 0 0 0 1 1 1 
1 1 1 1 1 1 1 1 1 
1 1 1 1 1 1 1 1 1 
1 1 1 1 1 1 0 0 0 
0 0 0 0 0 0 1 1 1 
1 1 1 1 1 1 1 1 1 
0 0 0 1 1 1 1 1 1 
1 1 1 1 1 1 0 0 0 
1 1 1 1 1 1 1 1 1 
1 1 1 1 1 1 1 1 1 
1 1 1 1 1 1 1 0 0 
0 0 0 0 0 0 0 1 1 
1 1 1 1 1 1 1 1 1 
1 1 1 1 1 1 1 1 1 
1 1 1 1 1 1 1 1 1 
1 1 1 1 1 1 1 1 1 
1 1 1 1 1 1 0 0 0 
0 0 0 0 0 1 1 1 1 
1 1 1 1 1 1 1 1 1 
1 1 1 1 1 1 1 1 1 
1 1 1 1 1 1 1 1 1 
1 1 1 1 1 1 1 1 1 
1 1 1 1 1 1 1 1 1 
1 1 0 0 0 0 0 0 0 
0 1 1 1 1 1 1 1 1 
1 1 1 1 1 1 1 1 1 
1 1 1 1 1 1 1 1 1 
1 1 1 1 1 1 1 1 1 
1 1 1 1 1 1 1 1 1 
1 1 1 1 1 1 1 1 1 
1 1 1 0 0 0 0 0 0 
0 0 1 1 1 1 1 1 1 
1 1 1 1 1 1 1 1 1 
1 1 1 1 1 1 1 1 1 
1 1 1 1 1 1 1 1 1 
1 1 1 1 1 1 1 1 1 
1 1 1 1 1 1 0 0 0 
0 0 0 0 0 1 1 1 1 
1 1 1 1 1 1 1 1 1 
1 1 1 1 1 1 1 1 1 
1 1 1 1 1 0 0 0 0 
0 0 0 0 0 1 1 1 1 
1 1 1 1 1 1 1 1 0 
0 0 1 1 1 1 1 1 1 
1 1 1 1 1 0 0 0 1 
1 1 1 1 1 1 1 1 1 
1 1 1 1 1 1 1 1 1 
1 1 1 1 1 1 0 0 0 
0 0 0 0 0 0 1 1 1 
1 1 1 1 1 1 1 1 1 
1 1 1 1 1 1 1 1 1 
1 1 1 1 1 1 1 1 1 
1 1 1 1 1 1 1 1 1 
1 1 1 1 1 1 1 1 0 
0 0 0 0 0 0 0 1 1 
1 1 1 1 1 1 1 1 1 
1 1 1 1 1 1 1 1 1 
1 1 1 1 1 1 1 1 1 
1 1 1 1 1 1 1 1 1 
1 1 1 1 1 1 1 1 1 
1 1 1 1 1 1 1 1 0 
0 0 0 0 0 0 0 1 1 
1 1 1 1 1 1 1 1 1 
1 1 1 1 1 1 1 1 1 
1 1 1 1 1 1 1 1 1 
1 1 1 1 1 1 1 1 1 
1 1 1 1 1 1 1 1 1 
1 1 1 1 1 1 1 1 1 
1 0 0 0 0 0 0 0 0 
1 1 1 1 1 1 1 1 1 
1 1 1 1 1 1 1 1 1 
1 1 1 1 1 1 1 1 1 
1 1 1 1 1 1 1 1 1 
1 1 1 1 1 1 1 1 1 
0 0 0 0 0 0 0 0 1 
1 1 1 1 1 1 1 1 1 
1 1 1 1 1 1 1 1 1 
1 1 1 1 1 1 1 1 0 
0 0 0 0 0 0 0 0 1 
1 1 1 1 1 1 1 1 1 
1 1 0 0 0 1 1 1 1 
1 1 1 1 1 1 1 1 0 
0 0 1 1 1 1 1 1 1 
1 1 1 1 1 1 1 1 1 
1 1 1 1 1 1 1 1 1 
0 0 0 0 0 0 0 0 0 
1 1 1 1 1 1 1 1 1 
1 1 1 1 1 1 1 1 1 
1 1 1 1 1 1 1 1 1 
1 1 1 1 1 1 1 1 1 
1 1 1 1 0 0 0 0 0 
0 0 0 1 1 1 1 1 1 
1 1 1 1 1 1 1 1 1 
1 1 1 1 1 1 1 1 1 
1 1 1 1 1 1 1 1 1 
1 1 1 1 1 1 1 1 1 
1 1 1 1 1 1 0 0 0 
0 0 0 0 0 1 1 1 1 
1 1 1 1 1 1 1 1 1 
1 1 1 1 1 1 1 1 1 
1 1 1 1 1 1 1 1 1 
1 1 1 1 1 1 1 1 1 
1 1 1 1 1 1 1 1 1 
1 1 0 0 0 0 0 0 0 
0 1 1 1 1 1 1 1 1 
1 1 1 1 1 1 1 1 1 
1 1 1 1 1 1 1 1 1 
1 1 1 1 1 1 1 1 1 
1 0 0 0 0 0 0 0 0 
1 1 1 1 1 1 1 1 1 
1 1 1 1 1 1 1 1 1 
1 1 1 1 1 1 1 1 1 
0 0 0 0 0 0 0 0 0 
1 1 1 1 1 1 1 1 1 
1 1 1 1 1 0 0 0 1 
1 1 1 1 1 1 1 1 1 
1 1 0 0 0 1 1 1 1 
1 1 1 1 1 1 1 1 1 
1 1 1 1 1 1 1 1 0 
0 0 0 0 0 0 0 0 1 
1 1 1 1 1 1 1 1 1 
1 1 1 1 1 1 1 1 1 
1 1 1 1 1 1 1 1 1 
1 1 1 1 1 1 1 1 1 
1 1 0 0 0 0 0 0 0 
0 1 1 1 1 1 1 1 1 
1 1 1 1 1 1 1 1 1 
1 1 1 1 1 1 1 1 1 
1 1 1 1 1 1 1 1 1 
1 1 1 1 1 1 1 1 1 
1 1 0 0 0 0 0 0 0 
0 1 1 1 1 1 1 1 1 
1 1 1 1 1 1 1 1 1 
1 1 1 1 1 1 1 1 1 
1 1 1 1 1 1 1 1 1 
1 1 1 1 1 1 1 1 1 
1 1 1 1 1 1 1 1 0 
0 0 0 0 0 0 0 1 1 
1 1 1 1 1 1 1 1 1 
1 1 1 1 1 1 1 1 1 
1 1 1 1 1 1 1 1 1 
1 1 1 1 1 1 1 1 1 
1 1 1 1 1 1 1 0 0 
0 0 0 0 0 0 1 1 1 
1 1 1 1 1 1 1 1 1 
1 1 1 1 1 1 1 1 1 
1 1 1 1 1 1 0 0 0 
0 0 0 0 0 0 1 1 1 
1 1 1 1 1 1 1 1 1 
0 0 0 
POINT_DATA 2972
NORMALS Normals float
-1.90057e-09 1 -1.42542e-09 0.353104 0.924081 0.14626 0.382198 0.924081 -4.19236e-08 
-0.382194 -0.924082 0 -0.375044 -0.912834 -0.161482 0 -1 5.46413e-09 
0.694671 0.65927 0.287742 0.751906 0.65927 -1.7883e-07 -0.686014 -0.727193 0.0239711 
-0.624622 -0.727193 -0.284673 0.872072 0.356657 0.335093 0.933918 0.35667 -0.0241447 
-0.933925 -0.356654 -0.0241454 -0.872074 -0.356654 -0.33509 0.980038 0.194949 -0.0389898 
0.906126 0.195087 0.375336 0.896536 4.41487e-06 0.442971 0.99842 -0.0397386 -0.0397239 
-1 -5.15984e-09 2.57992e-09 -0.937621 0.0397195 -0.345383 0.980037 -0.194953 0.0389842 
0.92036 -0.194939 0.339023 0.855226 -0.383167 0.348958 0.907216 -0.419308 -0.0337466 
-0.933925 0.356654 0.0241453 -0.828383 0.382442 -0.409292 0.831236 -0.555418 0.0236222 
0.788069 -0.554741 0.266852 0.656283 -0.707589 0.261936 0.706541 -0.707613 0.00914884 
-0.686014 0.727193 -0.023971 -0.642968 0.727193 -0.24038 0.555564 -0.831473 -8.58534e-06 
0.5133 -0.831458 0.212604 0.35772 -0.924011 0.135057 0.382103 -0.923772 -0.0253636 
-0.382194 0.924082 0 -0.375044 0.912834 -0.161482 0.195094 -0.980754 0.0077521 
0.18321 -0.980754 0.0674966 -1.1354e-05 -1 -2.76842e-06 0 1 5.46413e-09 
0.270254 0.924081 0.270254 -0.312928 -0.896745 -0.312929 0.531681 0.659268 0.531678 
-0.502036 -0.727193 -0.468135 0.649675 0.383163 0.656589 -0.643311 -0.356654 -0.677458 
0.720558 0.194948 0.665426 0.693517 0.195104 0.693519 0.831461 -1.17282e-05 0.555584 
0.705563 -0.0661622 0.705552 -0.707107 0 -0.707107 0.693539 -0.19507 0.693507 
0.770196 -0.376784 0.514618 0.669646 -0.321138 0.66966 -0.677458 0.356654 -0.643311 
0.587947 -0.555565 0.587934 0.593206 -0.700717 0.396361 0.531685 -0.65926 0.531684 
-0.468135 0.727193 -0.502035 0.311743 -0.907967 0.280023 -0.312929 0.896745 -0.312928 
0.137851 -0.980806 0.137903 0.146261 0.924081 0.353104 -0.161482 -0.912834 -0.375044 
0.28774 0.659271 0.694671 -0.24038 -0.727193 -0.642968 0.266854 0.554735 0.788072 
0.519062 0.35657 0.776809 0.353485 0.383166 0.853365 -0.409292 -0.382442 -0.828383 
0.375338 0.195093 0.906124 0.349442 0.195023 0.916437 0.555557 6.77882e-06 0.831478 
0.345375 -0.0397174 0.937624 -0.345383 -0.0397195 -0.937621 0.375388 -0.195087 0.906104 
0.514673 -0.376786 0.770158 0.395372 -0.345848 0.850923 -0.33509 0.356654 -0.872074 
0.26301 -0.687169 0.677218 -0.284673 0.727193 -0.624622 0.198002 -0.831358 0.519268 
0.215819 -0.921464 0.322994 0.146277 -0.924095 0.353059 -0.161482 0.912834 -0.375044 
4.09708e-08 0.924081 0.382198 0 -0.924082 -0.382194 -3.70434e-07 0.65927 0.751906 
-0.0239711 -0.727193 -0.686014 1.70394e-05 0.555584 0.83146 0.163205 0.548144 0.820307 
0.175512 0.436499 0.882419 0.0236434 0.555405 0.831244 0.182714 0.350788 0.918457 
0.0396222 0.345845 0.937455 0.0241454 -0.356654 -0.933925 0.191464 0.191469 0.962643 
0.191491 0.191499 0.962631 0.195109 6.46378e-06 0.980781 0.191474 0.191531 0.962629 
0.191483 0.191494 0.962634 -1.41294e-05 0.195082 0.980787 -0.0278723 0.195004 0.980406 
0.195097 -6.92555e-06 0.980784 -0.0397324 -0.0397203 0.998421 -2.57992e-09 -2.57992e-09 -1 
0.180705 -0.376855 0.908474 0.191466 -0.191473 0.962642 0.177647 -0.412856 0.893304 
0.191452 -0.191444 0.96265 0.180675 -0.376829 0.908491 0.191462 -0.191503 0.962636 
-1.00126e-05 -0.195089 0.980785 0.180706 -0.376856 0.908474 0.0611442 -0.382452 0.92195 
-0.0241453 0.356654 -0.933925 0.139181 -0.700743 0.699705 0.0236154 -0.555425 0.831231 
-5.15885e-07 -0.707631 0.706583 1.63572e-05 -0.555583 0.831461 0.163209 -0.548134 0.820312 
-0.0550176 -0.554738 0.830204 0.163157 -0.548116 0.820334 0.023971 0.727193 -0.686014 
0.00565237 -0.912837 0.408285 1.90562e-09 0.924082 -0.382194 -0.14626 0.924081 0.353104 
0.161482 -0.912834 -0.375044 -0.270395 0.707631 0.652797 0.284673 -0.727193 -0.624622 
-0.348554 0.555272 0.755105 -0.318172 0.55557 0.768185 -0.163132 0.548138 0.820324 
-0.175511 0.436533 0.882403 -0.296264 0.555433 0.776995 -0.1827 0.350772 0.918466 
-0.322131 0.345851 0.88126 0.33509 -0.356654 -0.872074 -0.191493 0.191476 0.962636 
-0.191516 0.191471 0.962632 -0.195125 -1.97746e-06 0.980778 -0.191452 0.191485 0.962642 
-0.191469 0.191477 0.96264 -0.375332 0.195088 0.906127 -0.400925 0.195019 0.895113 
-0.195092 6.37142e-06 0.980785 -0.418777 -0.0397156 0.90722 0.345383 0.0397195 -0.937621 
-0.183453 -0.340244 0.922268 -0.191473 -0.191494 0.962636 -0.177629 -0.412918 0.893279 
-0.191425 -0.191533 0.962638 -0.180647 -0.376905 0.908465 -0.19148 -0.191484 0.962637 
-0.375337 -0.195086 0.906125 -0.1807 -0.376878 0.908466 -0.29634 -0.382447 0.875167 
0.409292 0.382442 -0.828383 -0.139183 -0.700743 0.699705 -0.318178 -0.555585 0.768172 
-0.270385 -0.707637 0.652795 -0.266832 -0.554745 0.788073 -0.163177 -0.548112 0.820333 
-0.16315 -0.548137 0.820322 -0.318182 -0.555554 0.768193 -0.163125 -0.548119 0.820339 
-0.368549 -0.5547 0.745975 -0.163132 -0.548193 0.820288 0.24038 0.727193 -0.642968 
-0.0684993 -0.936333 0.344368 -0.169404 -0.896732 0.408869 0.161482 0.912834 -0.375044 
-0.0746593 -0.980786 0.180238 -0.270254 0.924081 0.270254 0.312929 -0.896745 -0.312928 
-0.531674 0.659276 0.531675 0.468135 -0.727193 -0.502036 -0.587939 0.555572 0.587935 
-0.587951 0.555551 0.587943 -0.587951 0.555556 0.587938 -0.464696 0.54813 0.695422 
-0.499877 0.436417 0.748107 -0.571074 0.555429 0.604461 -0.520278 0.350708 0.778662 
-0.634864 0.34588 0.690879 0.677458 -0.356654 -0.643311 -0.545309 0.191472 0.816074 
-0.545286 0.191492 0.816084 -0.555567 4.52426e-06 0.831472 -0.545295 0.191333 0.816116 
-0.545298 0.191485 0.816078 -0.693533 0.195077 0.69351 -0.71294 0.19503 0.673558 
-0.555586 1.84691e-05 0.831459 -0.73407 -0.0396969 0.677913 0.707107 0 -0.707107 
-0.522435 -0.340241 0.781855 -0.545307 -0.191476 0.816074 -0.506029 -0.412861 0.757285 
-0.545308 -0.191472 0.816074 -0.514611 -0.376842 0.770172 -0.545298 -0.191483 0.816079 
-0.693512 -0.195088 0.693529 -0.514596 -0.376861 0.770173 -0.608717 -0.382451 0.695122 
0.643311 0.356654 -0.677458 -0.396342 -0.700748 0.593182 -0.587939 -0.555571 0.587935 
-0.531672 -0.65928 0.531672 -0.464674 -0.548137 0.695431 -0.548128 -0.554718 0.625974 
-0.464679 -0.548117 0.695444 -0.464703 -0.548102 0.695439 -0.58797 -0.555545 0.58793 
-0.464716 -0.548132 0.695406 -0.625986 -0.554725 0.548108 -0.464629 -0.548152 0.695449 
0.502035 0.727193 -0.468135 -0.392841 -0.83147 0.392854 -0.280066 -0.907907 0.311877 
0.312928 0.896745 -0.312929 -0.134031 -0.98077 0.141866 -0.353104 0.924081 0.146261 
0.375044 -0.912834 -0.161482 -0.694673 0.659269 0.287739 0.642968 -0.727193 -0.24038 
-0.780404 0.555279 0.287465 -0.768169 0.555588 0.318181 -0.768172 0.555579 0.318187 
-0.768174 0.555572 0.318195 -0.695428 0.548127 0.46469 -0.74808 0.436494 0.499849 
-0.758919 0.555417 0.339931 -0.778666 0.350713 0.520268 -0.850915 0.345824 0.395412 
0.828383 -0.382442 -0.409292 -0.816081 0.191477 0.545296 -0.816052 0.191483 0.545338 
-0.83145 1.40321e-05 0.555599 -0.816101 0.191442 0.54528 -0.816081 0.191481 0.545296 
-0.90612 0.195098 0.375343 -0.916437 0.195023 0.349441 -0.83148 5.68065e-06 0.555555 
-0.937624 -0.0397174 0.345375 0.937621 -0.0397195 -0.345383 -0.78186 -0.340251 0.522421 
-0.816098 -0.19147 0.545273 -0.757285 -0.412894 0.506002 -0.816075 -0.191501 0.545297 
-0.770151 -0.376875 0.514619 -0.816079 -0.191486 0.545296 -0.906126 -0.195088 0.375336 
-0.770154 -0.376867 0.514621 -0.828377 -0.382443 0.409302 0.872074 0.356654 -0.33509 
-0.780404 -0.555279 0.287465 -0.694674 -0.659267 0.28774 -0.768168 -0.555588 0.318182 
-0.695445 -0.548115 0.464679 -0.745937 -0.554743 0.368562 -0.695422 -0.548144 0.464679 
-0.695436 -0.548122 0.464683 -0.768135 -0.555621 0.318204 -0.695389 -0.548172 0.464696 
-0.788028 -0.554792 0.266866 -0.695396 -0.548163 0.464695 0.624622 0.727193 -0.284673 
-0.513278 -0.831469 0.212613 -0.37808 -0.907921 0.180926 0.375044 0.912834 -0.161482 
-0.180248 -0.980785 0.0746355 -0.382198 0.924081 4.09708e-08 0.382194 -0.924082 0 
-0.75191 0.659266 5.9014e-07 0.686014 -0.727193 -0.0239711 -0.831477 0.555559 -3.62486e-07 
-0.83102 0.555259 -0.0330602 -0.831456 0.55559 6.62039e-07 -0.831458 0.555587 5.7897e-07 
-0.831463 0.55558 1.68632e-05 -0.820307 0.548144 0.163205 -0.882419 0.436499 0.175512 
-0.831244 0.555405 0.0236434 -0.918457 0.350788 0.182714 -0.937455 0.345845 0.0396222 
0.933925 -0.356654 0.0241454 -0.962643 0.191469 0.191464 -0.962631 0.191499 0.191491 
-0.980781 6.46378e-06 0.195109 -0.962629 0.191531 0.191474 -0.962634 0.191494 0.191483 
-0.980787 0.195082 -1.41294e-05 -0.980406 0.195004 -0.0278723 -0.980784 -6.92555e-06 0.195097 
-0.998421 -0.0397203 -0.0397324 1 -2.57992e-09 -2.57992e-09 -0.922267 -0.340251 0.183448 
-0.962642 -0.191473 0.191466 -0.893303 -0.412856 0.177649 -0.96265 -0.191444 0.191452 
-0.908493 -0.376826 0.180674 -0.962636 -0.191503 0.191462 -0.980785 -0.195089 -1.00126e-05 